# vtk DataFile Version 3.0
sol
ASCII
DATASET STRUCTURED_POINTS
DIMENSIONS 1 250 1
ORIGIN 0 0 0
SPACING 0.05 4e-05 1
POINT_DATA 250
SCALARS sol float
LOOKUP_TABLE default
302.239 
302.244 
302.256 
302.273 
302.295 
302.323 
302.357 
302.396 
302.441 
302.492 
302.549 
302.611 
302.679 
302.753 
302.833 
302.918 
303.01 
303.107 
303.211 
303.321 
303.437 
303.559 
303.687 
303.822 
303.963 
304.11 
304.264 
304.425 
304.592 
304.767 
304.948 
305.135 
305.33 
305.533 
305.742 
305.959 
306.183 
306.414 
306.654 
306.901 
307.156 
307.419 
307.69 
307.97 
308.258 
308.554 
308.86 
309.174 
309.497 
309.829 
310.171 
310.522 
310.882 
311.253 
311.633 
312.024 
312.425 
312.837 
313.259 
313.693 
314.137 
314.593 
315.06 
315.54 
316.031 
316.535 
317.051 
317.579 
318.121 
318.676 
319.244 
319.827 
320.423 
321.033 
321.658 
322.298 
322.953 
323.623 
324.31 
325.012 
325.73 
326.466 
327.218 
327.987 
328.775 
329.58 
330.404 
331.246 
332.107 
332.988 
333.889 
334.811 
335.752 
336.715 
337.7 
338.706 
339.734 
340.786 
341.86 
342.959 
344.081 
345.228 
346.4 
347.597 
348.821 
350.071 
351.348 
352.652 
353.985 
355.346 
356.736 
358.156 
359.607 
361.088 
362.6 
364.144 
365.721 
367.331 
368.975 
370.652 
372.365 
374.114 
375.898 
377.719 
379.578 
381.474 
383.41 
385.384 
387.399 
389.454 
391.55 
393.688 
395.869 
398.093 
400.36 
402.672 
405.029 
407.431 
409.88 
412.375 
414.917 
417.507 
420.146 
422.832 
425.569 
428.354 
431.189 
434.075 
437.01 
439.997 
443.033 
446.121 
449.258 
452.447 
455.685 
458.973 
462.31 
465.696 
469.13 
472.611 
476.138 
479.711 
483.327 
486.985 
490.684 
494.422 
498.197 
502.008 
505.852 
509.726 
513.63 
517.56 
521.514 
525.491 
529.487 
533.501 
537.531 
541.575 
545.631 
549.698 
553.776 
557.863 
561.959 
566.065 
570.18 
574.306 
578.443 
582.593 
586.758 
590.94 
595.141 
599.363 
603.61 
607.885 
612.189 
616.525 
620.898 
625.308 
629.758 
634.251 
638.79 
643.375 
648.008 
652.692 
657.427 
662.215 
667.056 
671.952 
676.903 
681.91 
686.974 
692.095 
697.274 
702.511 
707.807 
713.163 
718.579 
724.056 
729.594 
735.194 
740.855 
746.58 
752.368 
758.22 
764.137 
770.119 
776.166 
782.279 
788.459 
794.707 
801.022 
807.406 
813.86 
820.382 
826.975 
833.639 
840.375 
847.182 
854.062 
861.016 
868.043 
875.144 
882.321 
889.574 
896.903 
904.308 
911.792 
919.353 
926.994 
934.714 
