# vtk DataFile Version 3.0
sol
ASCII
DATASET STRUCTURED_POINTS
DIMENSIONS 1 250 1
ORIGIN 0 0 0
SPACING 0.05 4e-05 1
POINT_DATA 250
SCALARS sol float
LOOKUP_TABLE default
2531.63 
2531.67 
2531.75 
2531.87 
2532.03 
2532.22 
2532.46 
2532.73 
2533.04 
2533.39 
2533.79 
2534.22 
2534.69 
2535.19 
2535.74 
2536.33 
2536.95 
2537.61 
2538.32 
2539.06 
2539.84 
2540.66 
2541.51 
2542.41 
2543.34 
2544.32 
2545.33 
2546.38 
2547.47 
2548.59 
2549.76 
2550.96 
2552.2 
2553.48 
2554.8 
2556.15 
2557.54 
2558.97 
2560.44 
2561.95 
2563.49 
2565.07 
2566.68 
2568.34 
2570.03 
2571.76 
2573.52 
2575.33 
2577.16 
2579.04 
2580.95 
2582.9 
2584.88 
2586.9 
2588.96 
2591.05 
2593.18 
2595.34 
2597.54 
2599.78 
2602.05 
2604.35 
2606.69 
2609.07 
2611.48 
2613.92 
2616.4 
2618.91 
2621.46 
2624.04 
2626.66 
2629.31 
2631.99 
2634.71 
2637.45 
2640.24 
2643.05 
2645.9 
2648.78 
2651.69 
2654.64 
2657.61 
2660.62 
2663.66 
2666.73 
2669.84 
2672.97 
2676.14 
2679.33 
2682.56 
2685.82 
2689.1 
2692.42 
2695.77 
2699.15 
2702.55 
2705.99 
2709.45 
2712.94 
2716.46 
2720.01 
2723.59 
2727.19 
2730.83 
2734.49 
2738.17 
2741.89 
2745.63 
2749.4 
2753.19 
2757.01 
2760.86 
2764.73 
2768.62 
2772.54 
2776.49 
2780.46 
2784.45 
2788.47 
2792.51 
2796.58 
2800.67 
2804.78 
2808.91 
2813.07 
2817.25 
2821.45 
2825.67 
2829.91 
2834.17 
2838.46 
2842.76 
2847.09 
2851.43 
2855.8 
2860.18 
2864.58 
2869 
2873.44 
2877.9 
2882.37 
2886.86 
2891.37 
2895.9 
2900.44 
2905 
2909.57 
2914.16 
2918.76 
2923.38 
2928.02 
2932.66 
2937.32 
2942 
2946.69 
2951.39 
2956.1 
2960.82 
2965.56 
2970.31 
2975.07 
2979.84 
2984.61 
2989.4 
2994.2 
2999.01 
3003.83 
3008.65 
3013.48 
3018.32 
3023.17 
3028.03 
3032.89 
3037.75 
3042.63 
3047.51 
3052.39 
3057.28 
3062.17 
3067.06 
3071.96 
3076.86 
3081.77 
3086.67 
3091.58 
3096.49 
3101.4 
3106.31 
3111.22 
3116.13 
3121.04 
3125.94 
3130.85 
3135.75 
3140.65 
3145.55 
3150.45 
3155.34 
3160.22 
3165.1 
3169.98 
3174.85 
3179.71 
3184.57 
3189.42 
3194.26 
3199.1 
3203.92 
3208.74 
3213.55 
3218.34 
3223.13 
3227.91 
3232.67 
3237.42 
3242.16 
3246.89 
3251.6 
3256.3 
3260.99 
3265.66 
3270.32 
3274.96 
3279.58 
3284.19 
3288.77 
3293.35 
3297.9 
3302.43 
3306.95 
3311.44 
3315.91 
3320.37 
3324.8 
3329.21 
3333.59 
3337.95 
3342.29 
3346.61 
3350.9 
3355.16 
3359.4 
3363.61 
3367.8 
3371.96 
3376.09 
3380.19 
3384.26 
3388.3 
3392.31 
