# vtk DataFile Version 3.0
sol
ASCII
DATASET STRUCTURED_POINTS
DIMENSIONS 1 250 1
ORIGIN 0 0 0
SPACING 0.05 4e-05 1
POINT_DATA 250
SCALARS sol float
LOOKUP_TABLE default
2021.85 
2021.91 
2022.03 
2022.21 
2022.45 
2022.74 
2023.1 
2023.52 
2024 
2024.53 
2025.13 
2025.78 
2026.5 
2027.27 
2028.11 
2029 
2029.96 
2030.97 
2032.04 
2033.17 
2034.36 
2035.61 
2036.92 
2038.29 
2039.72 
2041.21 
2042.75 
2044.36 
2046.02 
2047.74 
2049.53 
2051.37 
2053.27 
2055.22 
2057.24 
2059.32 
2061.45 
2063.64 
2065.9 
2068.21 
2070.57 
2073 
2075.48 
2078.03 
2080.63 
2083.29 
2086 
2088.78 
2091.61 
2094.5 
2097.44 
2100.45 
2103.51 
2106.63 
2109.81 
2113.04 
2116.33 
2119.68 
2123.08 
2126.54 
2130.06 
2133.64 
2137.27 
2140.95 
2144.7 
2148.49 
2152.35 
2156.26 
2160.23 
2164.25 
2168.33 
2172.46 
2176.65 
2180.89 
2185.19 
2189.54 
2193.95 
2198.41 
2202.93 
2207.5 
2212.13 
2216.81 
2221.54 
2226.33 
2231.17 
2236.06 
2241.01 
2246.01 
2251.06 
2256.17 
2261.32 
2266.54 
2271.8 
2277.11 
2282.48 
2287.9 
2293.37 
2298.89 
2304.47 
2310.09 
2315.77 
2321.5 
2327.27 
2333.1 
2338.98 
2344.9 
2350.88 
2356.91 
2362.98 
2369.11 
2375.28 
2381.51 
2387.78 
2394.1 
2400.47 
2406.88 
2413.35 
2419.86 
2426.41 
2433.02 
2439.67 
2446.37 
2453.12 
2459.91 
2466.75 
2473.63 
2480.56 
2487.53 
2494.55 
2501.61 
2508.72 
2515.87 
2523.07 
2530.31 
2537.59 
2544.91 
2552.28 
2559.69 
2567.15 
2574.64 
2582.18 
2589.76 
2597.38 
2605.04 
2612.75 
2620.49 
2628.27 
2636.09 
2643.96 
2651.86 
2659.8 
2667.78 
2675.79 
2683.85 
2691.94 
2700.07 
2708.24 
2716.45 
2724.69 
2732.96 
2741.28 
2749.63 
2758.01 
2766.43 
2774.88 
2783.37 
2791.89 
2800.45 
2809.03 
2817.66 
2826.31 
2834.99 
2843.71 
2852.46 
2861.24 
2870.05 
2878.89 
2887.76 
2896.66 
2905.59 
2914.55 
2923.54 
2932.56 
2941.6 
2950.67 
2959.77 
2968.89 
2978.04 
2987.22 
2996.42 
3005.64 
3014.9 
3024.17 
3033.47 
3042.79 
3052.14 
3061.5 
3070.89 
3080.31 
3089.74 
3099.19 
3108.67 
3118.16 
3127.67 
3137.21 
3146.76 
3156.33 
3165.91 
3175.52 
3185.14 
3194.78 
3204.43 
3214.1 
3223.78 
3233.48 
3243.19 
3252.92 
3262.66 
3272.41 
3282.17 
3291.95 
3301.73 
3311.53 
3321.34 
3331.15 
3340.98 
3350.82 
3360.66 
3370.51 
3380.37 
3390.23 
3400.1 
3409.98 
3419.86 
3429.74 
3439.63 
3449.53 
3459.42 
3469.32 
3479.22 
3489.12 
3499.02 
3508.93 
3518.83 
3528.73 
3538.63 
3548.53 
3558.42 
3568.31 
3578.2 
