# vtk DataFile Version 3.0
sol
ASCII
DATASET STRUCTURED_POINTS
DIMENSIONS 1 250 1
ORIGIN 0 0 0
SPACING 0.05 4e-05 1
POINT_DATA 250
SCALARS sol float
LOOKUP_TABLE default
430.759 
430.804 
430.893 
431.027 
431.206 
431.429 
431.697 
432.01 
432.367 
432.769 
433.216 
433.708 
434.244 
434.825 
435.45 
436.12 
436.835 
437.595 
438.399 
439.247 
440.14 
441.078 
442.06 
443.086 
444.156 
445.271 
446.43 
447.632 
448.878 
450.168 
451.501 
452.877 
454.296 
455.758 
457.262 
458.808 
460.396 
462.025 
463.695 
465.405 
467.155 
468.945 
470.773 
472.639 
474.543 
476.484 
478.461 
480.473 
482.52 
484.6 
486.714 
488.859 
491.035 
493.241 
495.477 
497.74 
500.031 
502.348 
504.689 
507.055 
509.444 
511.855 
514.288 
516.741 
519.214 
521.705 
524.215 
526.743 
529.288 
531.849 
534.428 
537.022 
539.633 
542.26 
544.903 
547.563 
550.24 
552.935 
555.647 
558.378 
561.129 
563.9 
566.693 
569.508 
572.346 
575.208 
578.097 
581.011 
583.954 
586.925 
589.926 
592.958 
596.022 
599.119 
602.25 
605.416 
608.617 
611.854 
615.128 
618.44 
621.789 
625.177 
628.604 
632.071 
635.577 
639.123 
642.709 
646.337 
650.005 
653.714 
657.465 
661.258 
665.093 
668.971 
672.89 
676.853 
680.859 
684.909 
689.002 
693.139 
697.321 
701.547 
705.818 
710.134 
714.495 
718.903 
723.356 
727.856 
732.402 
736.996 
741.637 
746.325 
751.061 
755.846 
760.679 
765.561 
770.493 
775.474 
780.505 
785.586 
790.717 
795.9 
801.134 
806.419 
811.757 
817.147 
822.589 
828.085 
833.634 
839.237 
844.894 
850.606 
856.372 
862.194 
868.071 
874.005 
879.995 
886.042 
892.146 
898.307 
904.527 
910.805 
917.141 
923.537 
929.993 
936.509 
943.085 
949.721 
956.42 
963.179 
970.001 
976.886 
983.833 
990.844 
997.919 
1005.06 
1012.26 
1019.53 
1026.87 
1034.27 
1041.73 
1049.27 
1056.87 
1064.54 
1072.27 
1080.08 
1087.96 
1095.9 
1103.92 
1112 
1120.16 
1128.39 
1136.69 
1145.06 
1153.51 
1162.03 
1170.63 
1179.29 
1188.04 
1196.86 
1205.75 
1214.73 
1223.77 
1232.9 
1242.11 
1251.39 
1260.75 
1270.19 
1279.72 
1289.32 
1299.01 
1308.77 
1318.62 
1328.55 
1338.57 
1348.66 
1358.85 
1369.12 
1379.47 
1389.91 
1400.44 
1411.05 
1421.75 
1432.54 
1443.42 
1454.39 
1465.45 
1476.6 
1487.84 
1499.17 
1510.6 
1522.11 
1533.73 
1545.43 
1557.23 
1569.13 
1581.12 
1593.21 
1605.39 
1617.68 
1630.06 
1642.54 
1655.12 
1667.8 
1680.58 
1693.47 
1706.45 
1719.54 
1732.73 
1746.03 
