# vtk DataFile Version 3.0
sol
ASCII
DATASET STRUCTURED_POINTS
DIMENSIONS 1 250 1
ORIGIN 0 0 0
SPACING 0.05 4e-05 1
POINT_DATA 250
SCALARS sol float
LOOKUP_TABLE default
302.478 
302.484 
302.495 
302.513 
302.535 
302.564 
302.599 
302.639 
302.685 
302.737 
302.794 
302.858 
302.928 
303.003 
303.084 
303.172 
303.265 
303.365 
303.471 
303.583 
303.701 
303.826 
303.957 
304.094 
304.238 
304.389 
304.546 
304.71 
304.881 
305.059 
305.244 
305.436 
305.635 
305.841 
306.055 
306.276 
306.505 
306.741 
306.986 
307.238 
307.498 
307.767 
308.044 
308.329 
308.623 
308.925 
309.237 
309.557 
309.887 
310.226 
310.575 
310.933 
311.301 
311.679 
312.067 
312.466 
312.875 
313.295 
313.726 
314.168 
314.621 
315.086 
315.563 
316.052 
316.553 
317.066 
317.592 
318.131 
318.684 
319.25 
319.829 
320.423 
321.03 
321.653 
322.29 
322.942 
323.61 
324.293 
324.992 
325.708 
326.44 
327.189 
327.956 
328.74 
329.542 
330.362 
331.201 
332.06 
332.937 
333.835 
334.752 
335.69 
336.649 
337.63 
338.632 
339.657 
340.704 
341.774 
342.868 
343.986 
345.129 
346.296 
347.489 
348.707 
349.953 
351.224 
352.524 
353.851 
355.207 
356.592 
358.006 
359.45 
360.925 
362.431 
363.969 
365.54 
367.143 
368.78 
370.45 
372.156 
373.897 
375.674 
377.487 
379.338 
381.226 
383.153 
385.119 
387.125 
389.171 
391.258 
393.386 
395.557 
397.771 
400.028 
402.329 
404.676 
407.067 
409.504 
411.988 
414.518 
417.096 
419.722 
422.397 
425.12 
427.892 
430.714 
433.586 
436.508 
439.48 
442.503 
445.576 
448.699 
451.872 
455.095 
458.368 
461.69 
465.061 
468.479 
471.944 
475.456 
479.013 
482.613 
486.255 
489.939 
493.661 
497.421 
501.217 
505.045 
508.905 
512.794 
516.71 
520.65 
524.613 
528.596 
532.596 
536.613 
540.644 
544.688 
548.743 
552.809 
556.884 
560.968 
565.062 
569.165 
573.278 
577.403 
581.54 
585.692 
589.86 
594.047 
598.255 
602.487 
606.745 
611.033 
615.353 
619.707 
624.099 
628.531 
633.004 
637.522 
642.087 
646.699 
651.361 
656.074 
660.839 
665.657 
670.53 
675.457 
680.44 
685.479 
690.576 
695.73 
700.941 
706.212 
711.542 
716.931 
722.381 
727.892 
733.464 
739.098 
744.794 
750.553 
756.376 
762.263 
768.215 
774.232 
780.315 
786.464 
792.68 
798.964 
805.316 
811.736 
818.226 
824.786 
831.416 
838.117 
844.89 
851.735 
858.653 
865.644 
872.709 
879.849 
887.065 
894.356 
901.724 
909.169 
916.691 
924.292 
931.972 
939.732 
