# vtk DataFile Version 3.0
sol
ASCII
DATASET STRUCTURED_POINTS
DIMENSIONS 1 250 1
ORIGIN 0 0 0
SPACING 0.05 4e-05 1
POINT_DATA 250
SCALARS sol float
LOOKUP_TABLE default
1086.77 
1086.83 
1086.96 
1087.14 
1087.39 
1087.7 
1088.07 
1088.5 
1089 
1089.56 
1090.17 
1090.85 
1091.6 
1092.4 
1093.27 
1094.2 
1095.19 
1096.24 
1097.35 
1098.53 
1099.77 
1101.07 
1102.44 
1103.86 
1105.35 
1106.9 
1108.52 
1110.19 
1111.93 
1113.73 
1115.6 
1117.52 
1119.52 
1121.57 
1123.69 
1125.87 
1128.11 
1130.41 
1132.78 
1135.22 
1137.71 
1140.27 
1142.9 
1145.59 
1148.34 
1151.16 
1154.04 
1156.98 
1159.99 
1163.06 
1166.2 
1169.4 
1172.67 
1176 
1179.4 
1182.86 
1186.39 
1189.98 
1193.64 
1197.37 
1201.16 
1205.01 
1208.93 
1212.92 
1216.97 
1221.1 
1225.28 
1229.54 
1233.86 
1238.24 
1242.7 
1247.22 
1251.81 
1256.47 
1261.19 
1265.98 
1270.85 
1275.77 
1280.77 
1285.84 
1290.97 
1296.17 
1301.44 
1306.79 
1312.2 
1317.67 
1323.22 
1328.84 
1334.53 
1340.29 
1346.12 
1352.02 
1357.99 
1364.03 
1370.14 
1376.32 
1382.58 
1388.9 
1395.3 
1401.77 
1408.31 
1414.92 
1421.61 
1428.36 
1435.19 
1442.1 
1449.07 
1456.12 
1463.25 
1470.44 
1477.71 
1485.06 
1492.47 
1499.97 
1507.53 
1515.17 
1522.89 
1530.68 
1538.55 
1546.49 
1554.51 
1562.6 
1570.77 
1579.01 
1587.33 
1595.73 
1604.2 
1612.75 
1621.38 
1630.08 
1638.86 
1647.72 
1656.65 
1665.67 
1674.76 
1683.93 
1693.17 
1702.5 
1711.9 
1721.38 
1730.94 
1740.58 
1750.3 
1760.1 
1769.98 
1779.93 
1789.97 
1800.08 
1810.28 
1820.55 
1830.91 
1841.34 
1851.86 
1862.45 
1873.13 
1883.89 
1894.72 
1905.64 
1916.64 
1927.72 
1938.88 
1950.12 
1961.44 
1972.85 
1984.33 
1995.9 
2007.55 
2019.28 
2031.09 
2042.98 
2054.96 
2067.02 
2079.15 
2091.37 
2103.68 
2116.06 
2128.53 
2141.07 
2153.7 
2166.41 
2179.21 
2192.08 
2205.04 
2218.08 
2231.2 
2244.4 
2257.68 
2271.05 
2284.5 
2298.02 
2311.63 
2325.32 
2339.1 
2352.95 
2366.89 
2380.9 
2395 
2409.18 
2423.44 
2437.77 
2452.19 
2466.69 
2481.27 
2495.93 
2510.67 
2525.49 
2540.39 
2555.37 
2570.43 
2585.56 
2600.78 
2616.07 
2631.44 
2646.89 
2662.42 
2678.03 
2693.71 
2709.47 
2725.3 
2741.22 
2757.2 
2773.27 
2789.41 
2805.62 
2821.91 
2838.28 
2854.72 
2871.23 
2887.81 
2904.47 
2921.2 
2938.01 
2954.88 
2971.83 
2988.85 
3005.94 
3023.1 
3040.33 
3057.63 
3074.99 
3092.43 
3109.93 
3127.51 
3145.14 
3162.85 
3180.62 
3198.46 
3216.36 
3234.32 
3252.35 
