# vtk DataFile Version 3.0
sol
ASCII
DATASET STRUCTURED_POINTS
DIMENSIONS 1 250 1
ORIGIN 0 0 0
SPACING 0.05 4e-05 1
POINT_DATA 250
SCALARS sol float
LOOKUP_TABLE default
477.817 
477.867 
477.966 
478.114 
478.311 
478.558 
478.854 
479.199 
479.593 
480.035 
480.525 
481.064 
481.65 
482.284 
482.965 
483.692 
484.466 
485.286 
486.152 
487.062 
488.017 
489.016 
490.058 
491.143 
492.27 
493.439 
494.648 
495.898 
497.187 
498.514 
499.88 
501.282 
502.721 
504.195 
505.704 
507.247 
508.823 
510.431 
512.07 
513.739 
515.439 
517.167 
518.924 
520.707 
522.518 
524.355 
526.217 
528.104 
530.015 
531.95 
533.908 
535.89 
537.894 
539.921 
541.971 
544.043 
546.137 
548.254 
550.393 
552.555 
554.741 
556.95 
559.183 
561.441 
563.724 
566.033 
568.368 
570.73 
573.12 
575.538 
577.986 
580.464 
582.973 
585.513 
588.087 
590.693 
593.333 
596.009 
598.719 
601.466 
604.249 
607.07 
609.928 
612.825 
615.76 
618.734 
621.748 
624.802 
627.895 
631.029 
634.204 
637.42 
640.677 
643.975 
647.315 
650.696 
654.12 
657.586 
661.094 
664.645 
668.239 
671.875 
675.556 
679.279 
683.046 
686.858 
690.713 
694.613 
698.557 
702.546 
706.58 
710.66 
714.785 
718.957 
723.174 
727.437 
731.748 
736.105 
740.509 
744.961 
749.46 
754.007 
758.603 
763.247 
767.94 
772.682 
777.473 
782.314 
787.206 
792.147 
797.139 
802.182 
807.276 
812.422 
817.619 
822.869 
828.171 
833.526 
838.934 
844.396 
849.911 
855.481 
861.105 
866.784 
872.518 
878.308 
884.153 
890.055 
896.013 
902.029 
908.101 
914.232 
920.42 
926.667 
932.973 
939.337 
945.762 
952.246 
958.791 
965.396 
972.062 
978.79 
985.58 
992.432 
999.347 
1006.33 
1013.37 
1020.47 
1027.64 
1034.88 
1042.18 
1049.54 
1056.97 
1064.47 
1072.04 
1079.67 
1087.37 
1095.14 
1102.97 
1110.88 
1118.86 
1126.9 
1135.02 
1143.2 
1151.46 
1159.79 
1168.19 
1176.67 
1185.22 
1193.84 
1202.54 
1211.31 
1220.15 
1229.07 
1238.07 
1247.15 
1256.3 
1265.53 
1274.83 
1284.22 
1293.69 
1303.23 
1312.85 
1322.56 
1332.35 
1342.21 
1352.16 
1362.2 
1372.31 
1382.51 
1392.8 
1403.17 
1413.62 
1424.16 
1434.79 
1445.5 
1456.3 
1467.19 
1478.17 
1489.23 
1500.39 
1511.64 
1522.97 
1534.4 
1545.92 
1557.54 
1569.24 
1581.04 
1592.94 
1604.93 
1617.01 
1629.19 
1641.47 
1653.84 
1666.32 
1678.89 
1691.56 
1704.33 
1717.2 
1730.17 
1743.24 
1756.41 
1769.69 
1783.07 
1796.55 
1810.14 
1823.83 
1837.63 
1851.54 
1865.55 
