# vtk DataFile Version 3.0
sol
ASCII
DATASET STRUCTURED_POINTS
DIMENSIONS 1 250 1
ORIGIN 0 0 0
SPACING 0.05 4e-05 1
POINT_DATA 250
SCALARS sol float
LOOKUP_TABLE default
1566.17 
1566.24 
1566.37 
1566.58 
1566.85 
1567.19 
1567.6 
1568.07 
1568.62 
1569.23 
1569.91 
1570.66 
1571.47 
1572.36 
1573.31 
1574.33 
1575.42 
1576.58 
1577.8 
1579.09 
1580.45 
1581.88 
1583.38 
1584.94 
1586.57 
1588.27 
1590.04 
1591.88 
1593.78 
1595.75 
1597.79 
1599.9 
1602.07 
1604.32 
1606.63 
1609.01 
1611.45 
1613.96 
1616.55 
1619.2 
1621.91 
1624.7 
1627.55 
1630.47 
1633.46 
1636.51 
1639.63 
1642.82 
1646.08 
1649.4 
1652.8 
1656.26 
1659.78 
1663.38 
1667.04 
1670.77 
1674.56 
1678.43 
1682.36 
1686.35 
1690.42 
1694.55 
1698.75 
1703.01 
1707.35 
1711.74 
1716.21 
1720.74 
1725.34 
1730.01 
1734.74 
1739.54 
1744.41 
1749.34 
1754.34 
1759.41 
1764.54 
1769.74 
1775 
1780.33 
1785.73 
1791.19 
1796.72 
1802.32 
1807.98 
1813.71 
1819.5 
1825.36 
1831.28 
1837.27 
1843.33 
1849.45 
1855.63 
1861.88 
1868.2 
1874.58 
1881.03 
1887.54 
1894.11 
1900.75 
1907.46 
1914.23 
1921.06 
1927.96 
1934.93 
1941.95 
1949.05 
1956.2 
1963.42 
1970.7 
1978.05 
1985.46 
1992.94 
2000.47 
2008.07 
2015.74 
2023.46 
2031.25 
2039.11 
2047.02 
2055 
2063.04 
2071.14 
2079.3 
2087.53 
2095.82 
2104.17 
2112.58 
2121.05 
2129.59 
2138.18 
2146.84 
2155.56 
2164.33 
2173.17 
2182.07 
2191.03 
2200.05 
2209.13 
2218.27 
2227.46 
2236.72 
2246.04 
2255.41 
2264.85 
2274.34 
2283.89 
2293.5 
2303.17 
2312.89 
2322.68 
2332.52 
2342.41 
2352.37 
2362.38 
2372.45 
2382.57 
2392.75 
2402.99 
2413.28 
2423.63 
2434.03 
2444.49 
2455 
2465.56 
2476.19 
2486.86 
2497.59 
2508.37 
2519.21 
2530.09 
2541.03 
2552.03 
2563.07 
2574.17 
2585.32 
2596.52 
2607.77 
2619.07 
2630.42 
2641.83 
2653.28 
2664.78 
2676.33 
2687.93 
2699.58 
2711.28 
2723.02 
2734.82 
2746.66 
2758.54 
2770.48 
2782.46 
2794.48 
2806.55 
2818.67 
2830.83 
2843.04 
2855.29 
2867.58 
2879.92 
2892.3 
2904.72 
2917.19 
2929.7 
2942.24 
2954.83 
2967.47 
2980.14 
2992.85 
3005.6 
3018.39 
3031.22 
3044.09 
3056.99 
3069.93 
3082.91 
3095.93 
3108.98 
3122.07 
3135.19 
3148.35 
3161.54 
3174.77 
3188.03 
3201.32 
3214.64 
3228 
3241.39 
3254.81 
3268.26 
3281.74 
3295.25 
3308.79 
3322.35 
3335.95 
3349.57 
3363.22 
3376.9 
3390.6 
3404.33 
3418.08 
3431.86 
3445.66 
3459.48 
3473.33 
3487.2 
3501.09 
3515 
3528.93 
