# vtk DataFile Version 3.0
sol
ASCII
DATASET STRUCTURED_POINTS
DIMENSIONS 1 250 1
ORIGIN 0 0 0
SPACING 0.05 4e-05 1
POINT_DATA 250
SCALARS sol float
LOOKUP_TABLE default
294.619 
294.62 
294.623 
294.628 
294.633 
294.641 
294.649 
294.659 
294.671 
294.684 
294.699 
294.715 
294.732 
294.751 
294.772 
294.794 
294.818 
294.843 
294.87 
294.898 
294.928 
294.96 
294.994 
295.029 
295.066 
295.104 
295.145 
295.187 
295.231 
295.276 
295.324 
295.374 
295.425 
295.479 
295.534 
295.592 
295.651 
295.713 
295.777 
295.843 
295.912 
295.982 
296.055 
296.131 
296.209 
296.289 
296.372 
296.457 
296.545 
296.636 
296.73 
296.826 
296.925 
297.027 
297.132 
297.241 
297.352 
297.466 
297.584 
297.705 
297.83 
297.957 
298.089 
298.224 
298.363 
298.506 
298.652 
298.803 
298.957 
299.116 
299.279 
299.446 
299.618 
299.794 
299.975 
300.16 
300.351 
300.546 
300.746 
300.952 
301.163 
301.379 
301.601 
301.829 
302.062 
302.301 
302.546 
302.798 
303.055 
303.32 
303.59 
303.868 
304.152 
304.444 
304.742 
305.049 
305.362 
305.683 
306.013 
306.35 
306.695 
307.049 
307.412 
307.783 
308.163 
308.552 
308.951 
309.36 
309.778 
310.206 
310.645 
311.093 
311.553 
312.024 
312.505 
312.999 
313.503 
314.02 
314.549 
315.091 
315.645 
316.212 
316.792 
317.386 
317.994 
318.617 
319.253 
319.905 
320.571 
321.254 
321.952 
322.666 
323.397 
324.144 
324.909 
325.692 
326.492 
327.311 
328.149 
329.006 
329.883 
330.78 
331.697 
332.636 
333.596 
334.578 
335.582 
336.609 
337.66 
338.735 
339.834 
340.958 
342.108 
343.284 
344.486 
345.716 
346.974 
348.26 
349.576 
350.921 
352.297 
353.704 
355.143 
356.614 
358.118 
359.657 
361.23 
362.839 
364.484 
366.166 
367.886 
369.644 
371.442 
373.281 
375.161 
377.083 
379.048 
381.057 
383.11 
385.21 
387.357 
389.551 
391.794 
394.086 
396.43 
398.825 
401.273 
403.775 
406.331 
408.943 
411.612 
414.339 
417.125 
419.97 
422.876 
425.844 
428.874 
431.967 
435.125 
438.348 
441.636 
444.99 
448.412 
451.9 
455.456 
459.079 
462.771 
466.53 
470.356 
474.249 
478.209 
482.234 
486.324 
490.476 
494.691 
498.965 
503.297 
507.684 
512.124 
516.614 
521.151 
525.732 
530.354 
535.013 
539.706 
544.429 
549.18 
553.954 
558.75 
563.565 
568.396 
573.243 
578.103 
582.978 
587.867 
592.77 
597.69 
602.629 
607.588 
612.572 
617.585 
622.629 
627.709 
632.83 
637.996 
643.212 
648.481 
653.807 
659.195 
664.647 
