# vtk DataFile Version 3.0
sol
ASCII
DATASET STRUCTURED_POINTS
DIMENSIONS 1 250 1
ORIGIN 0 0 0
SPACING 0.05 4e-05 1
POINT_DATA 250
SCALARS sol float
LOOKUP_TABLE default
490.789 
490.838 
490.934 
491.079 
491.272 
491.514 
491.803 
492.139 
492.523 
492.955 
493.433 
493.958 
494.529 
495.146 
495.808 
496.516 
497.268 
498.064 
498.903 
499.786 
500.71 
501.677 
502.684 
503.732 
504.82 
505.947 
507.112 
508.315 
509.555 
510.831 
512.142 
513.488 
514.868 
516.281 
517.726 
519.203 
520.711 
522.249 
523.816 
525.413 
527.038 
528.69 
530.37 
532.076 
533.808 
535.566 
537.35 
539.158 
540.992 
542.85 
544.733 
546.64 
548.572 
550.529 
552.51 
554.517 
556.549 
558.606 
560.69 
562.8 
564.937 
567.101 
569.294 
571.515 
573.766 
576.046 
578.358 
580.7 
583.075 
585.483 
587.924 
590.399 
592.909 
595.455 
598.037 
600.655 
603.311 
606.004 
608.736 
611.506 
614.316 
617.165 
620.053 
622.982 
625.951 
628.961 
632.012 
635.105 
638.238 
641.413 
644.63 
647.889 
651.19 
654.534 
657.92 
661.349 
664.82 
668.335 
671.893 
675.495 
679.141 
682.83 
686.564 
690.342 
694.164 
698.032 
701.944 
705.902 
709.905 
713.953 
718.048 
722.189 
726.377 
730.611 
734.892 
739.22 
743.595 
748.019 
752.49 
757.009 
761.577 
766.194 
770.86 
775.575 
780.34 
785.154 
790.019 
794.934 
799.9 
804.918 
809.986 
815.106 
820.278 
825.503 
830.78 
836.11 
841.493 
846.93 
852.421 
857.966 
863.565 
869.22 
874.929 
880.694 
886.516 
892.393 
898.327 
904.318 
910.366 
916.472 
922.636 
928.859 
935.14 
941.48 
947.88 
954.34 
960.86 
967.441 
974.083 
980.786 
987.551 
994.378 
1001.27 
1008.22 
1015.24 
1022.32 
1029.46 
1036.67 
1043.95 
1051.28 
1058.69 
1066.16 
1073.7 
1081.31 
1088.98 
1096.72 
1104.53 
1112.41 
1120.36 
1128.38 
1136.46 
1144.62 
1152.85 
1161.15 
1169.53 
1177.97 
1186.49 
1195.09 
1203.75 
1212.49 
1221.31 
1230.2 
1239.17 
1248.21 
1257.33 
1266.53 
1275.8 
1285.16 
1294.59 
1304.1 
1313.69 
1323.36 
1333.11 
1342.95 
1352.86 
1362.86 
1372.94 
1383.1 
1393.35 
1403.68 
1414.1 
1424.6 
1435.19 
1445.87 
1456.63 
1467.48 
1478.42 
1489.44 
1500.56 
1511.77 
1523.06 
1534.45 
1545.93 
1557.5 
1569.16 
1580.92 
1592.77 
1604.71 
1616.75 
1628.89 
1641.12 
1653.45 
1665.87 
1678.4 
1691.02 
1703.74 
1716.56 
1729.48 
1742.5 
1755.62 
1768.85 
1782.18 
1795.61 
1809.14 
1822.78 
1836.53 
1850.38 
1864.33 
1878.4 
1892.57 
