# vtk DataFile Version 3.0
sol
ASCII
DATASET STRUCTURED_POINTS
DIMENSIONS 1 250 1
ORIGIN 0 0 0
SPACING 0.05 4e-05 1
POINT_DATA 250
SCALARS sol float
LOOKUP_TABLE default
474.724 
474.774 
474.873 
475.021 
475.219 
475.466 
475.763 
476.108 
476.503 
476.946 
477.437 
477.977 
478.565 
479.201 
479.883 
480.613 
481.39 
482.213 
483.081 
483.995 
484.954 
485.957 
487.004 
488.094 
489.227 
490.402 
491.619 
492.876 
494.172 
495.509 
496.883 
498.296 
499.745 
501.23 
502.751 
504.306 
505.895 
507.516 
509.17 
510.854 
512.569 
514.313 
516.085 
517.886 
519.713 
521.567 
523.447 
525.351 
527.28 
529.233 
531.21 
533.209 
535.231 
537.275 
539.341 
541.43 
543.54 
545.672 
547.826 
550.003 
552.202 
554.423 
556.668 
558.936 
561.229 
563.546 
565.889 
568.257 
570.652 
573.075 
575.526 
578.006 
580.516 
583.057 
585.629 
588.234 
590.872 
593.543 
596.249 
598.991 
601.768 
604.582 
607.433 
610.322 
613.249 
616.214 
619.219 
622.263 
625.346 
628.47 
631.634 
634.839 
638.085 
641.371 
644.699 
648.069 
651.48 
654.934 
658.429 
661.967 
665.548 
669.171 
672.838 
676.547 
680.301 
684.097 
687.938 
691.823 
695.753 
699.727 
703.746 
707.81 
711.92 
716.075 
720.276 
724.524 
728.817 
733.158 
737.545 
741.98 
746.462 
750.992 
755.569 
760.196 
764.87 
769.594 
774.367 
779.19 
784.062 
788.984 
793.957 
798.981 
804.055 
809.181 
814.359 
819.588 
824.87 
830.205 
835.592 
841.033 
846.527 
852.075 
857.678 
863.335 
869.048 
874.815 
880.639 
886.518 
892.454 
898.446 
904.496 
910.603 
916.768 
922.992 
929.274 
935.615 
942.015 
948.475 
954.995 
961.576 
968.218 
974.921 
981.686 
988.513 
995.402 
1002.35 
1009.37 
1016.45 
1023.59 
1030.8 
1038.08 
1045.41 
1052.82 
1060.29 
1067.83 
1075.43 
1083.11 
1090.85 
1098.65 
1106.53 
1114.48 
1122.5 
1130.58 
1138.74 
1146.97 
1155.27 
1163.65 
1172.09 
1180.61 
1189.2 
1197.87 
1206.61 
1215.43 
1224.32 
1233.29 
1242.33 
1251.45 
1260.65 
1269.92 
1279.28 
1288.71 
1298.22 
1307.82 
1317.49 
1327.24 
1337.08 
1347 
1357 
1367.08 
1377.25 
1387.5 
1397.83 
1408.25 
1418.76 
1429.35 
1440.03 
1450.8 
1461.65 
1472.59 
1483.63 
1494.75 
1505.96 
1517.26 
1528.65 
1540.14 
1551.72 
1563.39 
1575.15 
1587.01 
1598.96 
1611.01 
1623.16 
1635.4 
1647.73 
1660.17 
1672.7 
1685.33 
1698.06 
1710.9 
1723.83 
1736.86 
1750 
1763.23 
1776.58 
1790.02 
1803.57 
1817.22 
1830.98 
1844.85 
1858.82 
