# vtk DataFile Version 3.0
sol
ASCII
DATASET STRUCTURED_POINTS
DIMENSIONS 1 250 1
ORIGIN 0 0 0
SPACING 0.05 4e-05 1
POINT_DATA 250
SCALARS sol float
LOOKUP_TABLE default
842.908 
842.959 
843.061 
843.214 
843.418 
843.673 
843.979 
844.337 
844.745 
845.204 
845.715 
846.277 
846.89 
847.554 
848.269 
849.036 
849.854 
850.723 
851.644 
852.616 
853.64 
854.715 
855.842 
857.02 
858.251 
859.533 
860.867 
862.252 
863.69 
865.18 
866.722 
868.316 
869.962 
871.661 
873.412 
875.216 
877.072 
878.981 
880.943 
882.958 
885.026 
887.146 
889.32 
891.548 
893.829 
896.163 
898.551 
900.993 
903.488 
906.038 
908.641 
911.299 
914.012 
916.779 
919.6 
922.477 
925.408 
928.394 
931.436 
934.533 
937.685 
940.893 
944.157 
947.477 
950.853 
954.285 
957.774 
961.319 
964.922 
968.581 
972.297 
976.071 
979.902 
983.791 
987.737 
991.742 
995.805 
999.927 
1004.11 
1008.35 
1012.64 
1017 
1021.42 
1025.89 
1030.43 
1035.03 
1039.68 
1044.4 
1049.18 
1054.02 
1058.92 
1063.88 
1068.9 
1073.99 
1079.13 
1084.34 
1089.61 
1094.95 
1100.35 
1105.81 
1111.33 
1116.92 
1122.57 
1128.29 
1134.07 
1139.92 
1145.83 
1151.81 
1157.85 
1163.96 
1170.13 
1176.37 
1182.68 
1189.06 
1195.5 
1202.01 
1208.59 
1215.23 
1221.95 
1228.73 
1235.58 
1242.51 
1249.5 
1256.56 
1263.69 
1270.89 
1278.17 
1285.51 
1292.93 
1300.42 
1307.98 
1315.61 
1323.32 
1331.1 
1338.95 
1346.88 
1354.88 
1362.96 
1371.11 
1379.33 
1387.64 
1396.02 
1404.47 
1413 
1421.61 
1430.3 
1439.06 
1447.9 
1456.82 
1465.82 
1474.9 
1484.06 
1493.3 
1502.61 
1512.01 
1521.5 
1531.06 
1540.7 
1550.43 
1560.24 
1570.13 
1580.11 
1590.17 
1600.32 
1610.55 
1620.86 
1631.27 
1641.75 
1652.33 
1662.99 
1673.74 
1684.57 
1695.5 
1706.51 
1717.61 
1728.81 
1740.09 
1751.46 
1762.92 
1774.48 
1786.13 
1797.86 
1809.7 
1821.62 
1833.64 
1845.75 
1857.96 
1870.26 
1882.66 
1895.16 
1907.75 
1920.43 
1933.22 
1946.1 
1959.08 
1972.17 
1985.35 
1998.63 
2012.01 
2025.49 
2039.07 
2052.76 
2066.54 
2080.43 
2094.43 
2108.53 
2122.73 
2137.04 
2151.45 
2165.97 
2180.6 
2195.33 
2210.17 
2225.12 
2240.18 
2255.35 
2270.62 
2286.01 
2301.51 
2317.12 
2332.84 
2348.68 
2364.63 
2380.69 
2396.87 
2413.16 
2429.57 
2446.09 
2462.73 
2479.49 
2496.37 
2513.36 
2530.47 
2547.71 
2565.06 
2582.53 
2600.13 
2617.84 
2635.68 
2653.65 
2671.74 
2689.95 
2708.28 
2726.75 
2745.33 
2764.05 
2782.89 
2801.87 
2820.97 
2840.2 
