# vtk DataFile Version 3.0
sol
ASCII
DATASET STRUCTURED_POINTS
DIMENSIONS 1 250 1
ORIGIN 0 0 0
SPACING 0.05 4e-05 1
POINT_DATA 250
SCALARS sol float
LOOKUP_TABLE default
1145.75 
1145.82 
1145.94 
1146.13 
1146.39 
1146.71 
1147.09 
1147.54 
1148.05 
1148.62 
1149.26 
1149.97 
1150.73 
1151.56 
1152.46 
1153.42 
1154.44 
1155.52 
1156.68 
1157.89 
1159.17 
1160.51 
1161.92 
1163.39 
1164.93 
1166.53 
1168.2 
1169.93 
1171.72 
1173.58 
1175.5 
1177.49 
1179.54 
1181.66 
1183.85 
1186.09 
1188.41 
1190.78 
1193.23 
1195.74 
1198.31 
1200.95 
1203.66 
1206.43 
1209.26 
1212.16 
1215.13 
1218.17 
1221.26 
1224.43 
1227.66 
1230.96 
1234.33 
1237.76 
1241.25 
1244.82 
1248.45 
1252.15 
1255.91 
1259.74 
1263.64 
1267.61 
1271.64 
1275.74 
1279.91 
1284.15 
1288.45 
1292.82 
1297.26 
1301.77 
1306.35 
1310.99 
1315.71 
1320.49 
1325.34 
1330.26 
1335.25 
1340.3 
1345.43 
1350.63 
1355.89 
1361.23 
1366.63 
1372.11 
1377.65 
1383.27 
1388.95 
1394.71 
1400.53 
1406.43 
1412.4 
1418.44 
1424.54 
1430.72 
1436.98 
1443.3 
1449.69 
1456.16 
1462.7 
1469.31 
1475.99 
1482.74 
1489.57 
1496.47 
1503.44 
1510.48 
1517.6 
1524.79 
1532.05 
1539.38 
1546.79 
1554.27 
1561.83 
1569.46 
1577.16 
1584.94 
1592.79 
1600.72 
1608.72 
1616.79 
1624.94 
1633.16 
1641.46 
1649.83 
1658.28 
1666.8 
1675.4 
1684.07 
1692.82 
1701.65 
1710.54 
1719.52 
1728.57 
1737.7 
1746.9 
1756.18 
1765.53 
1774.96 
1784.47 
1794.06 
1803.72 
1813.45 
1823.27 
1833.16 
1843.12 
1853.17 
1863.29 
1873.48 
1883.76 
1894.11 
1904.54 
1915.04 
1925.62 
1936.28 
1947.02 
1957.84 
1968.73 
1979.7 
1990.74 
2001.87 
2013.07 
2024.35 
2035.7 
2047.13 
2058.64 
2070.23 
2081.9 
2093.64 
2105.46 
2117.36 
2129.33 
2141.39 
2153.51 
2165.72 
2178 
2190.37 
2202.8 
2215.32 
2227.91 
2240.58 
2253.32 
2266.14 
2279.04 
2292.02 
2305.07 
2318.2 
2331.4 
2344.68 
2358.04 
2371.47 
2384.97 
2398.56 
2412.22 
2425.95 
2439.76 
2453.64 
2467.6 
2481.63 
2495.74 
2509.92 
2524.18 
2538.51 
2552.91 
2567.38 
2581.93 
2596.56 
2611.25 
2626.02 
2640.86 
2655.77 
2670.75 
2685.81 
2700.94 
2716.13 
2731.4 
2746.74 
2762.15 
2777.62 
2793.17 
2808.79 
2824.47 
2840.22 
2856.04 
2871.93 
2887.89 
2903.91 
2920 
2936.16 
2952.38 
2968.66 
2985.01 
3001.43 
3017.91 
3034.45 
3051.06 
3067.73 
3084.46 
3101.26 
3118.11 
3135.03 
3152 
3169.04 
3186.14 
3203.29 
3220.5 
3237.78 
3255.1 
3272.49 
3289.93 
3307.43 
