# vtk DataFile Version 3.0
sol
ASCII
DATASET STRUCTURED_POINTS
DIMENSIONS 1 250 1
ORIGIN 0 0 0
SPACING 0.05 4e-05 1
POINT_DATA 250
SCALARS sol float
LOOKUP_TABLE default
293.031 
293.031 
293.031 
293.031 
293.031 
293.031 
293.031 
293.032 
293.032 
293.032 
293.032 
293.032 
293.033 
293.033 
293.033 
293.034 
293.034 
293.034 
293.035 
293.035 
293.036 
293.036 
293.037 
293.038 
293.038 
293.039 
293.04 
293.04 
293.041 
293.042 
293.043 
293.044 
293.045 
293.046 
293.047 
293.048 
293.049 
293.051 
293.052 
293.054 
293.055 
293.057 
293.058 
293.06 
293.062 
293.064 
293.066 
293.068 
293.07 
293.073 
293.075 
293.078 
293.08 
293.083 
293.086 
293.089 
293.093 
293.096 
293.1 
293.104 
293.108 
293.112 
293.116 
293.121 
293.125 
293.13 
293.135 
293.141 
293.147 
293.153 
293.159 
293.165 
293.172 
293.179 
293.187 
293.195 
293.203 
293.211 
293.22 
293.229 
293.239 
293.249 
293.26 
293.271 
293.282 
293.294 
293.307 
293.32 
293.334 
293.348 
293.363 
293.378 
293.395 
293.411 
293.429 
293.447 
293.466 
293.486 
293.507 
293.529 
293.551 
293.575 
293.599 
293.625 
293.651 
293.679 
293.707 
293.737 
293.768 
293.801 
293.834 
293.869 
293.906 
293.944 
293.983 
294.024 
294.066 
294.111 
294.157 
294.204 
294.254 
294.305 
294.359 
294.415 
294.472 
294.532 
294.594 
294.659 
294.726 
294.796 
294.868 
294.943 
295.021 
295.101 
295.185 
295.271 
295.361 
295.455 
295.551 
295.651 
295.755 
295.862 
295.974 
296.089 
296.209 
296.332 
296.46 
296.593 
296.73 
296.872 
297.019 
297.172 
297.329 
297.492 
297.661 
297.835 
298.015 
298.202 
298.394 
298.593 
298.799 
299.012 
299.232 
299.459 
299.694 
299.936 
300.187 
300.445 
300.712 
300.988 
301.272 
301.566 
301.869 
302.182 
302.505 
302.838 
303.181 
303.535 
303.901 
304.277 
304.666 
305.066 
305.479 
305.904 
306.342 
306.794 
307.259 
307.738 
308.232 
308.74 
309.264 
309.803 
310.357 
310.929 
311.516 
312.121 
312.744 
313.384 
314.043 
314.721 
315.418 
316.135 
316.872 
317.629 
318.408 
319.209 
320.032 
320.877 
321.746 
322.639 
323.556 
324.497 
325.465 
326.458 
327.478 
328.525 
329.6 
330.703 
331.835 
332.997 
334.189 
335.412 
336.666 
337.953 
339.273 
340.626 
342.014 
343.436 
344.895 
346.389 
347.921 
349.491 
351.099 
352.747 
354.435 
356.163 
357.934 
359.747 
361.603 
363.503 
365.449 
367.44 
369.477 
371.562 
373.695 
375.877 
378.109 
380.392 
382.727 
385.113 
