# vtk DataFile Version 3.0
sol
ASCII
DATASET STRUCTURED_POINTS
DIMENSIONS 1 250 1
ORIGIN 0 0 0
SPACING 0.05 4e-05 1
POINT_DATA 250
SCALARS sol float
LOOKUP_TABLE default
1587.4 
1587.47 
1587.61 
1587.81 
1588.08 
1588.42 
1588.83 
1589.3 
1589.85 
1590.46 
1591.14 
1591.88 
1592.7 
1593.58 
1594.53 
1595.55 
1596.63 
1597.79 
1599.01 
1600.3 
1601.65 
1603.08 
1604.57 
1606.13 
1607.76 
1609.46 
1611.22 
1613.05 
1614.95 
1616.92 
1618.95 
1621.05 
1623.22 
1625.46 
1627.76 
1630.13 
1632.57 
1635.08 
1637.66 
1640.3 
1643.01 
1645.78 
1648.63 
1651.54 
1654.52 
1657.57 
1660.68 
1663.86 
1667.11 
1670.42 
1673.8 
1677.25 
1680.77 
1684.35 
1688 
1691.72 
1695.51 
1699.36 
1703.28 
1707.26 
1711.31 
1715.43 
1719.62 
1723.87 
1728.19 
1732.57 
1737.03 
1741.54 
1746.13 
1750.78 
1755.5 
1760.28 
1765.13 
1770.04 
1775.03 
1780.07 
1785.19 
1790.37 
1795.61 
1800.93 
1806.3 
1811.75 
1817.25 
1822.83 
1828.47 
1834.17 
1839.94 
1845.78 
1851.68 
1857.65 
1863.68 
1869.77 
1875.93 
1882.16 
1888.45 
1894.8 
1901.22 
1907.7 
1914.25 
1920.86 
1927.54 
1934.28 
1941.08 
1947.95 
1954.88 
1961.88 
1968.94 
1976.06 
1983.25 
1990.49 
1997.81 
2005.18 
2012.62 
2020.12 
2027.68 
2035.31 
2043 
2050.75 
2058.56 
2066.43 
2074.37 
2082.37 
2090.42 
2098.55 
2106.73 
2114.97 
2123.27 
2131.64 
2140.07 
2148.55 
2157.1 
2165.7 
2174.37 
2183.1 
2191.89 
2200.73 
2209.64 
2218.6 
2227.63 
2236.71 
2245.85 
2255.05 
2264.31 
2273.62 
2283 
2292.43 
2301.92 
2311.47 
2321.07 
2330.73 
2340.45 
2350.22 
2360.05 
2369.94 
2379.88 
2389.88 
2399.93 
2410.04 
2420.21 
2430.42 
2440.7 
2451.02 
2461.4 
2471.84 
2482.33 
2492.87 
2503.46 
2514.11 
2524.81 
2535.56 
2546.37 
2557.22 
2568.13 
2579.09 
2590.1 
2601.15 
2612.26 
2623.42 
2634.63 
2645.89 
2657.2 
2668.56 
2679.96 
2691.41 
2702.91 
2714.46 
2726.06 
2737.7 
2749.39 
2761.12 
2772.91 
2784.73 
2796.6 
2808.52 
2820.48 
2832.49 
2844.53 
2856.63 
2868.76 
2880.94 
2893.16 
2905.42 
2917.72 
2930.07 
2942.45 
2954.88 
2967.35 
2979.85 
2992.4 
3004.98 
3017.6 
3030.26 
3042.96 
3055.69 
3068.46 
3081.27 
3094.11 
3106.99 
3119.9 
3132.85 
3145.83 
3158.85 
3171.89 
3184.97 
3198.09 
3211.23 
3224.41 
3237.61 
3250.85 
3264.12 
3277.41 
3290.74 
3304.09 
3317.47 
3330.88 
3344.31 
3357.77 
3371.26 
3384.77 
3398.31 
3411.87 
3425.45 
3439.06 
3452.69 
3466.34 
3480.02 
3493.71 
3507.42 
3521.16 
3534.91 
