# vtk DataFile Version 3.0
sol
ASCII
DATASET STRUCTURED_POINTS
DIMENSIONS 1 250 1
ORIGIN 0 0 0
SPACING 0.05 4e-05 1
POINT_DATA 250
SCALARS sol float
LOOKUP_TABLE default
2407.52 
2407.57 
2407.66 
2407.8 
2407.98 
2408.21 
2408.48 
2408.8 
2409.16 
2409.57 
2410.02 
2410.52 
2411.07 
2411.66 
2412.29 
2412.97 
2413.7 
2414.47 
2415.29 
2416.15 
2417.05 
2418.01 
2419 
2420.04 
2421.13 
2422.26 
2423.44 
2424.66 
2425.92 
2427.23 
2428.58 
2429.98 
2431.43 
2432.91 
2434.45 
2436.02 
2437.64 
2439.31 
2441.01 
2442.77 
2444.56 
2446.4 
2448.28 
2450.21 
2452.18 
2454.19 
2456.25 
2458.35 
2460.49 
2462.68 
2464.91 
2467.18 
2469.49 
2471.85 
2474.25 
2476.69 
2479.18 
2481.7 
2484.27 
2486.88 
2489.53 
2492.22 
2494.96 
2497.73 
2500.55 
2503.41 
2506.31 
2509.25 
2512.23 
2515.25 
2518.31 
2521.41 
2524.55 
2527.73 
2530.95 
2534.21 
2537.51 
2540.85 
2544.23 
2547.65 
2551.1 
2554.6 
2558.13 
2561.7 
2565.31 
2568.96 
2572.64 
2576.36 
2580.12 
2583.92 
2587.75 
2591.62 
2595.53 
2599.47 
2603.45 
2607.46 
2611.52 
2615.6 
2619.72 
2623.88 
2628.07 
2632.3 
2636.56 
2640.85 
2645.18 
2649.55 
2653.94 
2658.37 
2662.83 
2667.33 
2671.86 
2676.42 
2681.01 
2685.64 
2690.29 
2694.98 
2699.7 
2704.45 
2709.23 
2714.04 
2718.88 
2723.75 
2728.66 
2733.59 
2738.54 
2743.53 
2748.55 
2753.59 
2758.67 
2763.77 
2768.9 
2774.05 
2779.23 
2784.44 
2789.68 
2794.94 
2800.22 
2805.54 
2810.87 
2816.23 
2821.62 
2827.03 
2832.47 
2837.92 
2843.41 
2848.91 
2854.44 
2859.99 
2865.56 
2871.15 
2876.76 
2882.4 
2888.05 
2893.73 
2899.43 
2905.14 
2910.88 
2916.63 
2922.4 
2928.19 
2934 
2939.83 
2945.67 
2951.53 
2957.41 
2963.3 
2969.21 
2975.13 
2981.07 
2987.02 
2992.99 
2998.97 
3004.97 
3010.98 
3017 
3023.03 
3029.08 
3035.13 
3041.2 
3047.28 
3053.37 
3059.47 
3065.58 
3071.69 
3077.82 
3083.95 
3090.1 
3096.25 
3102.4 
3108.57 
3114.74 
3120.91 
3127.09 
3133.28 
3139.47 
3145.66 
3151.86 
3158.06 
3164.27 
3170.47 
3176.68 
3182.89 
3189.1 
3195.31 
3201.52 
3207.73 
3213.94 
3220.15 
3226.36 
3232.56 
3238.76 
3244.96 
3251.15 
3257.34 
3263.53 
3269.71 
3275.88 
3282.05 
3288.21 
3294.36 
3300.51 
3306.65 
3312.78 
3318.9 
3325.01 
3331.11 
3337.2 
3343.28 
3349.35 
3355.4 
3361.44 
3367.47 
3373.49 
3379.49 
3385.47 
3391.44 
3397.39 
3403.33 
3409.25 
3415.15 
3421.04 
3426.9 
3432.75 
3438.58 
3444.38 
3450.17 
3455.93 
3461.67 
3467.39 
3473.09 
