# vtk DataFile Version 3.0
sol
ASCII
DATASET STRUCTURED_POINTS
DIMENSIONS 1 250 1
ORIGIN 0 0 0
SPACING 0.05 4e-05 1
POINT_DATA 250
SCALARS sol float
LOOKUP_TABLE default
310.327 
310.336 
310.355 
310.383 
310.42 
310.467 
310.524 
310.589 
310.665 
310.75 
310.844 
310.948 
311.062 
311.185 
311.318 
311.461 
311.614 
311.776 
311.949 
312.132 
312.325 
312.528 
312.741 
312.965 
313.199 
313.444 
313.7 
313.967 
314.244 
314.533 
314.833 
315.144 
315.466 
315.8 
316.146 
316.504 
316.874 
317.256 
317.65 
318.057 
318.476 
318.909 
319.354 
319.812 
320.285 
320.77 
321.27 
321.783 
322.311 
322.853 
323.41 
323.982 
324.568 
325.171 
325.789 
326.422 
327.072 
327.739 
328.421 
329.121 
329.838 
330.573 
331.326 
332.096 
332.885 
333.693 
334.519 
335.365 
336.231 
337.117 
338.023 
338.95 
339.897 
340.867 
341.858 
342.871 
343.907 
344.966 
346.048 
347.154 
348.284 
349.438 
350.618 
351.823 
353.054 
354.311 
355.595 
356.906 
358.245 
359.612 
361.008 
362.432 
363.887 
365.371 
366.886 
368.432 
370.01 
371.619 
373.262 
374.937 
376.647 
378.39 
380.168 
381.982 
383.831 
385.717 
387.639 
389.599 
391.597 
393.634 
395.71 
397.825 
399.98 
402.176 
404.413 
406.691 
409.012 
411.375 
413.781 
416.231 
418.724 
421.261 
423.843 
426.47 
429.142 
431.858 
434.621 
437.429 
440.282 
443.181 
446.126 
449.115 
452.15 
455.23 
458.354 
461.523 
464.734 
467.988 
471.284 
474.62 
477.996 
481.411 
484.863 
488.351 
491.874 
495.429 
499.015 
502.63 
506.273 
509.942 
513.634 
517.347 
521.081 
524.832 
528.6 
532.383 
536.179 
539.987 
543.805 
547.634 
551.473 
555.321 
559.179 
563.046 
566.924 
570.813 
574.715 
578.631 
582.562 
586.512 
590.481 
594.473 
598.488 
602.531 
606.603 
610.706 
614.843 
619.017 
623.228 
627.479 
631.772 
636.108 
640.489 
644.916 
649.39 
653.912 
658.483 
663.104 
667.775 
672.497 
677.271 
682.097 
686.976 
691.908 
696.894 
701.934 
707.028 
712.178 
717.384 
722.645 
727.963 
733.338 
738.771 
744.262 
749.812 
755.421 
761.089 
766.818 
772.607 
778.457 
784.369 
790.343 
796.38 
802.481 
808.645 
814.873 
821.167 
827.525 
833.95 
840.441 
847 
853.626 
860.32 
867.082 
873.915 
880.816 
887.789 
894.832 
901.947 
909.134 
916.394 
923.727 
931.134 
938.615 
946.172 
953.804 
961.512 
969.297 
977.16 
985.1 
993.12 
1001.22 
1009.4 
1017.66 
1026 
1034.42 
1042.92 
1051.51 
1060.18 
1068.94 
