# vtk DataFile Version 3.0
sol
ASCII
DATASET STRUCTURED_POINTS
DIMENSIONS 1 250 1
ORIGIN 0 0 0
SPACING 0.05 4e-05 1
POINT_DATA 250
SCALARS sol float
LOOKUP_TABLE default
432.958 
433.003 
433.093 
433.228 
433.409 
433.634 
433.905 
434.221 
434.582 
434.988 
435.439 
435.935 
436.476 
437.062 
437.694 
438.37 
439.091 
439.857 
440.669 
441.525 
442.425 
443.371 
444.361 
445.396 
446.475 
447.598 
448.765 
449.977 
451.232 
452.531 
453.873 
455.259 
456.687 
458.158 
459.671 
461.226 
462.822 
464.46 
466.138 
467.856 
469.613 
471.41 
473.245 
475.118 
477.027 
478.973 
480.955 
482.971 
485.021 
487.104 
489.219 
491.366 
493.543 
495.749 
497.983 
500.245 
502.532 
504.846 
507.183 
509.544 
511.928 
514.333 
516.759 
519.205 
521.67 
524.153 
526.655 
529.174 
531.71 
534.263 
536.832 
539.418 
542.02 
544.639 
547.275 
549.928 
552.598 
555.287 
557.995 
560.722 
563.47 
566.239 
569.03 
571.845 
574.684 
577.548 
580.439 
583.358 
586.305 
589.283 
592.291 
595.331 
598.404 
601.51 
604.651 
607.828 
611.041 
614.29 
617.577 
620.901 
624.265 
627.666 
631.108 
634.589 
638.109 
641.671 
645.273 
648.915 
652.599 
656.325 
660.092 
663.901 
667.752 
671.646 
675.583 
679.563 
683.586 
687.653 
691.764 
695.919 
700.119 
704.363 
708.652 
712.987 
717.367 
721.793 
726.266 
730.785 
735.351 
739.964 
744.624 
749.332 
754.089 
758.894 
763.747 
768.65 
773.602 
778.604 
783.656 
788.759 
793.912 
799.116 
804.372 
809.68 
815.039 
820.452 
825.917 
831.435 
837.007 
842.633 
848.313 
854.048 
859.838 
865.684 
871.585 
877.543 
883.557 
889.628 
895.757 
901.943 
908.187 
914.49 
920.852 
927.274 
933.755 
940.296 
946.898 
953.561 
960.286 
967.072 
973.921 
980.832 
987.806 
994.844 
1001.95 
1009.11 
1016.34 
1023.64 
1031 
1038.43 
1045.93 
1053.49 
1061.12 
1068.82 
1076.58 
1084.42 
1092.32 
1100.3 
1108.34 
1116.46 
1124.65 
1132.91 
1141.24 
1149.64 
1158.12 
1166.67 
1175.3 
1184 
1192.77 
1201.62 
1210.55 
1219.55 
1228.63 
1237.79 
1247.03 
1256.35 
1265.74 
1275.22 
1284.77 
1294.41 
1304.13 
1313.93 
1323.81 
1333.77 
1343.82 
1353.96 
1364.17 
1374.48 
1384.86 
1395.34 
1405.9 
1416.55 
1427.29 
1438.11 
1449.03 
1460.03 
1471.13 
1482.31 
1493.59 
1504.96 
1516.42 
1527.97 
1539.62 
1551.37 
1563.2 
1575.14 
1587.17 
1599.29 
1611.52 
1623.84 
1636.26 
1648.78 
1661.4 
1674.12 
1686.94 
1699.86 
1712.88 
1726.01 
1739.24 
1752.58 
