# vtk DataFile Version 3.0
sol
ASCII
DATASET STRUCTURED_POINTS
DIMENSIONS 1 250 1
ORIGIN 0 0 0
SPACING 0.05 4e-05 1
POINT_DATA 250
SCALARS sol float
LOOKUP_TABLE default
542.631 
542.666 
542.735 
542.838 
542.975 
543.147 
543.353 
543.593 
543.867 
544.175 
544.517 
544.893 
545.302 
545.746 
546.222 
546.732 
547.275 
547.851 
548.46 
549.102 
549.776 
550.484 
551.224 
551.996 
552.8 
553.637 
554.507 
555.408 
556.342 
557.307 
558.305 
559.336 
560.398 
561.493 
562.62 
563.78 
564.973 
566.199 
567.457 
568.749 
570.075 
571.434 
572.827 
574.254 
575.716 
577.213 
578.746 
580.314 
581.917 
583.558 
585.235 
586.949 
588.7 
590.489 
592.317 
594.183 
596.088 
598.033 
600.017 
602.041 
604.106 
606.211 
608.357 
610.544 
612.773 
615.044 
617.356 
619.711 
622.108 
624.547 
627.03 
629.555 
632.123 
634.734 
637.389 
640.087 
642.829 
645.614 
648.444 
651.317 
654.234 
657.196 
660.201 
663.252 
666.346 
669.486 
672.671 
675.9 
679.175 
682.495 
685.86 
689.271 
692.728 
696.23 
699.779 
703.374 
707.016 
710.704 
714.439 
718.221 
722.05 
725.926 
729.85 
733.822 
737.842 
741.91 
746.026 
750.191 
754.404 
758.667 
762.979 
767.34 
771.751 
776.212 
780.723 
785.284 
789.897 
794.56 
799.274 
804.039 
808.856 
813.726 
818.647 
823.62 
828.647 
833.726 
838.859 
844.045 
849.285 
854.579 
859.928 
865.331 
870.789 
876.302 
881.871 
887.496 
893.178 
898.915 
904.71 
910.561 
916.471 
922.437 
928.463 
934.546 
940.688 
946.89 
953.151 
959.472 
965.853 
972.294 
978.796 
985.36 
991.985 
998.672 
1005.42 
1012.23 
1019.11 
1026.05 
1033.05 
1040.12 
1047.25 
1054.44 
1061.71 
1069.03 
1076.43 
1083.89 
1091.41 
1099.01 
1106.67 
1114.4 
1122.2 
1130.07 
1138 
1146.01 
1154.09 
1162.24 
1170.46 
1178.75 
1187.11 
1195.55 
1204.05 
1212.64 
1221.29 
1230.02 
1238.83 
1247.7 
1256.66 
1265.69 
1274.8 
1283.98 
1293.25 
1302.59 
1312 
1321.5 
1331.08 
1340.74 
1350.47 
1360.29 
1370.19 
1380.17 
1390.24 
1400.38 
1410.61 
1420.93 
1431.32 
1441.81 
1452.37 
1463.03 
1473.77 
1484.6 
1495.51 
1506.52 
1517.61 
1528.79 
1540.06 
1551.42 
1562.87 
1574.41 
1586.05 
1597.78 
1609.6 
1621.51 
1633.52 
1645.62 
1657.82 
1670.11 
1682.5 
1694.99 
1707.57 
1720.25 
1733.03 
1745.91 
1758.89 
1771.97 
1785.15 
1798.44 
1811.82 
1825.31 
1838.9 
1852.59 
1866.39 
1880.3 
1894.31 
1908.43 
1922.65 
1936.98 
1951.42 
1965.97 
1980.63 
1995.4 
