# vtk DataFile Version 3.0
sol
ASCII
DATASET STRUCTURED_POINTS
DIMENSIONS 1 250 1
ORIGIN 0 0 0
SPACING 0.05 4e-05 1
POINT_DATA 250
SCALARS sol float
LOOKUP_TABLE default
295.489 
295.491 
295.495 
295.501 
295.509 
295.519 
295.531 
295.545 
295.561 
295.579 
295.599 
295.621 
295.645 
295.672 
295.7 
295.731 
295.763 
295.798 
295.835 
295.874 
295.916 
295.96 
296.006 
296.054 
296.105 
296.158 
296.213 
296.271 
296.331 
296.394 
296.459 
296.527 
296.598 
296.671 
296.747 
296.825 
296.907 
296.991 
297.078 
297.168 
297.261 
297.357 
297.456 
297.559 
297.664 
297.773 
297.886 
298.001 
298.12 
298.243 
298.369 
298.499 
298.633 
298.77 
298.912 
299.057 
299.207 
299.361 
299.518 
299.681 
299.847 
300.019 
300.194 
300.375 
300.56 
300.751 
300.946 
301.146 
301.352 
301.563 
301.78 
302.002 
302.229 
302.463 
302.703 
302.948 
303.2 
303.458 
303.723 
303.994 
304.273 
304.558 
304.85 
305.149 
305.456 
305.77 
306.092 
306.422 
306.761 
307.107 
307.462 
307.825 
308.197 
308.579 
308.969 
309.369 
309.778 
310.198 
310.627 
311.067 
311.517 
311.978 
312.449 
312.932 
313.427 
313.933 
314.452 
314.982 
315.525 
316.081 
316.65 
317.232 
317.828 
318.438 
319.062 
319.701 
320.355 
321.024 
321.709 
322.409 
323.126 
323.86 
324.61 
325.378 
326.164 
326.968 
327.791 
328.633 
329.494 
330.375 
331.276 
332.199 
333.142 
334.107 
335.094 
336.104 
337.138 
338.194 
339.276 
340.381 
341.513 
342.67 
343.853 
345.064 
346.302 
347.568 
348.864 
350.188 
351.543 
352.929 
354.346 
355.795 
357.277 
358.793 
360.343 
361.927 
363.548 
365.205 
366.9 
368.632 
370.404 
372.215 
374.066 
375.959 
377.895 
379.873 
381.895 
383.962 
386.075 
388.234 
390.441 
392.697 
395.001 
397.356 
399.762 
402.221 
404.732 
407.297 
409.917 
412.592 
415.325 
418.114 
420.962 
423.869 
426.835 
429.862 
432.95 
436.1 
439.312 
442.587 
445.925 
449.326 
452.791 
456.319 
459.911 
463.567 
467.285 
471.066 
474.909 
478.812 
482.776 
486.798 
490.876 
495.01 
499.197 
503.435 
507.721 
512.053 
516.429 
520.844 
525.296 
529.782 
534.299 
538.843 
543.411 
548 
552.608 
557.233 
561.871 
566.522 
571.184 
575.857 
580.54 
585.235 
589.941 
594.661 
599.397 
604.151 
608.926 
613.726 
618.554 
623.414 
628.309 
633.245 
638.224 
643.25 
648.327 
653.457 
658.644 
663.891 
669.199 
674.571 
680.008 
685.512 
691.084 
696.726 
702.437 
708.22 
714.074 
720.001 
