# vtk DataFile Version 3.0
sol
ASCII
DATASET STRUCTURED_POINTS
DIMENSIONS 1 250 1
ORIGIN 0 0 0
SPACING 0.05 4e-05 1
POINT_DATA 250
SCALARS sol float
LOOKUP_TABLE default
2219.45 
2219.51 
2219.61 
2219.77 
2219.99 
2220.25 
2220.57 
2220.94 
2221.37 
2221.85 
2222.38 
2222.97 
2223.6 
2224.29 
2225.04 
2225.84 
2226.69 
2227.59 
2228.55 
2229.56 
2230.62 
2231.73 
2232.9 
2234.12 
2235.39 
2236.72 
2238.1 
2239.53 
2241.01 
2242.55 
2244.14 
2245.78 
2247.47 
2249.21 
2251.01 
2252.86 
2254.76 
2256.71 
2258.72 
2260.78 
2262.88 
2265.04 
2267.26 
2269.52 
2271.83 
2274.2 
2276.62 
2279.08 
2281.6 
2284.17 
2286.79 
2289.46 
2292.19 
2294.96 
2297.78 
2300.66 
2303.58 
2306.55 
2309.58 
2312.65 
2315.77 
2318.95 
2322.17 
2325.44 
2328.76 
2332.13 
2335.55 
2339.02 
2342.54 
2346.1 
2349.72 
2353.38 
2357.09 
2360.85 
2364.65 
2368.51 
2372.41 
2376.36 
2380.35 
2384.4 
2388.49 
2392.63 
2396.81 
2401.04 
2405.32 
2409.64 
2414.01 
2418.42 
2422.88 
2427.39 
2431.94 
2436.54 
2441.18 
2445.86 
2450.6 
2455.37 
2460.19 
2465.05 
2469.96 
2474.91 
2479.9 
2484.94 
2490.02 
2495.14 
2500.31 
2505.51 
2510.76 
2516.05 
2521.39 
2526.76 
2532.18 
2537.63 
2543.13 
2548.67 
2554.25 
2559.87 
2565.52 
2571.22 
2576.96 
2582.73 
2588.55 
2594.4 
2600.3 
2606.23 
2612.19 
2618.2 
2624.24 
2630.32 
2636.44 
2642.59 
2648.78 
2655.01 
2661.27 
2667.57 
2673.9 
2680.27 
2686.67 
2693.1 
2699.57 
2706.08 
2712.61 
2719.18 
2725.79 
2732.42 
2739.09 
2745.79 
2752.52 
2759.29 
2766.08 
2772.91 
2779.76 
2786.65 
2793.56 
2800.51 
2807.48 
2814.48 
2821.51 
2828.57 
2835.66 
2842.77 
2849.91 
2857.08 
2864.28 
2871.5 
2878.74 
2886.01 
2893.31 
2900.63 
2907.98 
2915.35 
2922.74 
2930.16 
2937.6 
2945.06 
2952.54 
2960.05 
2967.57 
2975.12 
2982.69 
2990.28 
2997.88 
3005.51 
3013.16 
3020.82 
3028.51 
3036.21 
3043.93 
3051.66 
3059.41 
3067.18 
3074.96 
3082.76 
3090.58 
3098.41 
3106.25 
3114.1 
3121.97 
3129.86 
3137.75 
3145.66 
3153.57 
3161.5 
3169.44 
3177.39 
3185.35 
3193.32 
3201.29 
3209.28 
3217.27 
3225.27 
3233.28 
3241.29 
3249.31 
3257.34 
3265.37 
3273.4 
3281.44 
3289.48 
3297.52 
3305.57 
3313.62 
3321.67 
3329.72 
3337.78 
3345.83 
3353.88 
3361.93 
3369.98 
3378.03 
3386.08 
3394.12 
3402.16 
3410.19 
3418.22 
3426.24 
3434.26 
3442.28 
3450.28 
3458.28 
3466.27 
3474.25 
3482.23 
3490.19 
3498.15 
3506.09 
3514.02 
3521.94 
3529.85 
3537.75 
3545.63 
