# vtk DataFile Version 3.0
sol
ASCII
DATASET STRUCTURED_POINTS
DIMENSIONS 1 250 1
ORIGIN 0 0 0
SPACING 0.05 4e-05 1
POINT_DATA 250
SCALARS sol float
LOOKUP_TABLE default
2524.27 
2524.31 
2524.39 
2524.51 
2524.66 
2524.86 
2525.1 
2525.38 
2525.69 
2526.05 
2526.44 
2526.88 
2527.35 
2527.87 
2528.42 
2529.01 
2529.64 
2530.31 
2531.02 
2531.77 
2532.56 
2533.39 
2534.25 
2535.16 
2536.1 
2537.09 
2538.11 
2539.17 
2540.27 
2541.41 
2542.58 
2543.8 
2545.05 
2546.34 
2547.67 
2549.04 
2550.45 
2551.9 
2553.38 
2554.9 
2556.46 
2558.05 
2559.69 
2561.36 
2563.07 
2564.82 
2566.6 
2568.42 
2570.28 
2572.18 
2574.11 
2576.08 
2578.08 
2580.13 
2582.2 
2584.32 
2586.47 
2588.66 
2590.88 
2593.14 
2595.43 
2597.76 
2600.13 
2602.53 
2604.97 
2607.44 
2609.94 
2612.48 
2615.06 
2617.67 
2620.31 
2622.99 
2625.7 
2628.45 
2631.23 
2634.04 
2636.89 
2639.77 
2642.68 
2645.62 
2648.6 
2651.61 
2654.66 
2657.73 
2660.84 
2663.98 
2667.15 
2670.35 
2673.58 
2676.84 
2680.14 
2683.46 
2686.82 
2690.2 
2693.62 
2697.06 
2700.54 
2704.04 
2707.57 
2711.14 
2714.73 
2718.35 
2721.99 
2725.67 
2729.37 
2733.1 
2736.86 
2740.65 
2744.46 
2748.3 
2752.16 
2756.05 
2759.97 
2763.91 
2767.88 
2771.88 
2775.89 
2779.94 
2784 
2788.09 
2792.21 
2796.35 
2800.51 
2804.7 
2808.9 
2813.13 
2817.39 
2821.66 
2825.96 
2830.28 
2834.61 
2838.97 
2843.35 
2847.75 
2852.17 
2856.61 
2861.07 
2865.55 
2870.05 
2874.56 
2879.09 
2883.65 
2888.21 
2892.8 
2897.4 
2902.02 
2906.66 
2911.31 
2915.97 
2920.65 
2925.35 
2930.06 
2934.79 
2939.53 
2944.28 
2949.04 
2953.82 
2958.61 
2963.41 
2968.23 
2973.06 
2977.89 
2982.74 
2987.6 
2992.47 
2997.34 
3002.23 
3007.12 
3012.03 
3016.94 
3021.86 
3026.79 
3031.72 
3036.66 
3041.61 
3046.56 
3051.52 
3056.48 
3061.45 
3066.42 
3071.39 
3076.37 
3081.35 
3086.34 
3091.32 
3096.31 
3101.3 
3106.29 
3111.28 
3116.27 
3121.26 
3126.24 
3131.23 
3136.22 
3141.2 
3146.18 
3151.16 
3156.13 
3161.1 
3166.07 
3171.03 
3175.99 
3180.94 
3185.88 
3190.82 
3195.75 
3200.67 
3205.58 
3210.49 
3215.39 
3220.27 
3225.15 
3230.02 
3234.87 
3239.72 
3244.55 
3249.37 
3254.18 
3258.97 
3263.75 
3268.51 
3273.26 
3278 
3282.72 
3287.42 
3292.11 
3296.77 
3301.42 
3306.06 
3310.67 
3315.26 
3319.83 
3324.39 
3328.92 
3333.43 
3337.91 
3342.38 
3346.82 
3351.24 
3355.63 
3360 
3364.34 
3368.66 
3372.95 
3377.21 
3381.45 
3385.65 
3389.83 
3393.98 
3398.1 
