# vtk DataFile Version 3.0
sol
ASCII
DATASET STRUCTURED_POINTS
DIMENSIONS 1 250 1
ORIGIN 0 0 0
SPACING 0.05 4e-05 1
POINT_DATA 250
SCALARS sol float
LOOKUP_TABLE default
471.693 
471.742 
471.841 
471.99 
472.188 
472.435 
472.732 
473.077 
473.472 
473.916 
474.408 
474.948 
475.536 
476.173 
476.857 
477.588 
478.366 
479.19 
480.061 
480.977 
481.939 
482.945 
483.995 
485.089 
486.226 
487.406 
488.628 
489.89 
491.194 
492.537 
493.919 
495.34 
496.798 
498.292 
499.823 
501.389 
502.989 
504.622 
506.288 
507.986 
509.714 
511.472 
513.26 
515.076 
516.919 
518.789 
520.685 
522.606 
524.552 
526.522 
528.515 
530.532 
532.571 
534.632 
536.715 
538.82 
540.946 
543.093 
545.262 
547.453 
549.665 
551.9 
554.157 
556.436 
558.738 
561.065 
563.415 
565.791 
568.192 
570.62 
573.075 
575.558 
578.07 
580.611 
583.183 
585.786 
588.421 
591.09 
593.792 
596.528 
599.3 
602.108 
604.952 
607.833 
610.752 
613.708 
616.704 
619.738 
622.812 
625.925 
629.078 
632.272 
635.506 
638.782 
642.098 
645.455 
648.854 
652.295 
655.778 
659.303 
662.87 
666.48 
670.133 
673.829 
677.568 
681.351 
685.177 
689.047 
692.962 
696.921 
700.925 
704.973 
709.067 
713.207 
717.392 
721.622 
725.9 
730.223 
734.594 
739.011 
743.476 
747.988 
752.548 
757.157 
761.813 
766.519 
771.273 
776.077 
780.93 
785.834 
790.787 
795.791 
800.846 
805.952 
811.11 
816.319 
821.581 
826.894 
832.261 
837.681 
843.154 
848.681 
854.262 
859.898 
865.588 
871.334 
877.135 
882.992 
888.905 
894.875 
900.902 
906.986 
913.128 
919.328 
925.586 
931.903 
938.279 
944.715 
951.211 
957.768 
964.385 
971.063 
977.803 
984.604 
991.468 
998.395 
1005.39 
1012.44 
1019.56 
1026.74 
1033.99 
1041.3 
1048.68 
1056.12 
1063.63 
1071.21 
1078.85 
1086.57 
1094.35 
1102.2 
1110.12 
1118.1 
1126.16 
1134.29 
1142.49 
1150.77 
1159.11 
1167.53 
1176.01 
1184.58 
1193.21 
1201.92 
1210.71 
1219.57 
1228.51 
1237.52 
1246.61 
1255.78 
1265.02 
1274.35 
1283.75 
1293.23 
1302.79 
1312.43 
1322.15 
1331.95 
1341.84 
1351.81 
1361.86 
1371.99 
1382.21 
1392.51 
1402.9 
1413.37 
1423.93 
1434.57 
1445.3 
1456.12 
1467.03 
1478.03 
1489.12 
1500.29 
1511.56 
1522.92 
1534.37 
1545.91 
1557.54 
1569.27 
1581.09 
1593.01 
1605.02 
1617.13 
1629.33 
1641.63 
1654.03 
1666.53 
1679.12 
1691.81 
1704.61 
1717.5 
1730.5 
1743.59 
1756.79 
1770.09 
1783.5 
1797.01 
1810.62 
1824.34 
1838.17 
1852.1 
