# vtk DataFile Version 3.0
sol
ASCII
DATASET STRUCTURED_POINTS
DIMENSIONS 1 250 1
ORIGIN 0 0 0
SPACING 0.05 4e-05 1
POINT_DATA 250
SCALARS sol float
LOOKUP_TABLE default
622.741 
622.778 
622.852 
622.963 
623.111 
623.295 
623.517 
623.776 
624.073 
624.406 
624.776 
625.184 
625.629 
626.112 
626.632 
627.189 
627.784 
628.417 
629.087 
629.796 
630.542 
631.326 
632.148 
633.009 
633.908 
634.845 
635.821 
636.836 
637.889 
638.981 
640.113 
641.283 
642.493 
643.742 
645.03 
646.359 
647.727 
649.135 
650.583 
652.071 
653.599 
655.168 
656.778 
658.428 
660.12 
661.852 
663.626 
665.441 
667.298 
669.196 
671.136 
673.118 
675.143 
677.21 
679.319 
681.471 
683.666 
685.904 
688.185 
690.51 
692.878 
695.29 
697.746 
700.246 
702.791 
705.379 
708.013 
710.691 
713.415 
716.184 
718.998 
721.858 
724.764 
727.715 
730.713 
733.758 
736.849 
739.987 
743.172 
746.405 
749.684 
753.012 
756.387 
759.811 
763.283 
766.803 
770.373 
773.991 
777.658 
781.375 
785.142 
788.958 
792.825 
796.742 
800.709 
804.728 
808.797 
812.918 
817.09 
821.314 
825.59 
829.919 
834.3 
838.733 
843.22 
847.76 
852.353 
857 
861.702 
866.457 
871.267 
876.132 
881.052 
886.028 
891.059 
896.146 
901.289 
906.489 
911.745 
917.058 
922.429 
927.857 
933.343 
938.888 
944.491 
950.152 
955.873 
961.653 
967.492 
973.392 
979.352 
985.372 
991.453 
997.596 
1003.8 
1010.07 
1016.39 
1022.78 
1029.24 
1035.75 
1042.33 
1048.98 
1055.69 
1062.46 
1069.29 
1076.2 
1083.17 
1090.2 
1097.3 
1104.46 
1111.7 
1119 
1126.37 
1133.8 
1141.31 
1148.88 
1156.52 
1164.24 
1172.02 
1179.87 
1187.79 
1195.79 
1203.85 
1211.99 
1220.2 
1228.48 
1236.83 
1245.26 
1253.76 
1262.34 
1270.99 
1279.72 
1288.52 
1297.39 
1306.35 
1315.38 
1324.49 
1333.67 
1342.93 
1352.27 
1361.69 
1371.19 
1380.77 
1390.43 
1400.17 
1409.99 
1419.9 
1429.88 
1439.95 
1450.1 
1460.33 
1470.65 
1481.05 
1491.54 
1502.11 
1512.77 
1523.51 
1534.34 
1545.26 
1556.26 
1567.36 
1578.54 
1589.81 
1601.18 
1612.63 
1624.17 
1635.8 
1647.53 
1659.35 
1671.26 
1683.26 
1695.36 
1707.55 
1719.84 
1732.22 
1744.7 
1757.28 
1769.95 
1782.72 
1795.59 
1808.56 
1821.62 
1834.79 
1848.06 
1861.42 
1874.89 
1888.46 
1902.14 
1915.91 
1929.8 
1943.78 
1957.87 
1972.07 
1986.37 
2000.78 
2015.29 
2029.92 
2044.65 
2059.49 
2074.45 
2089.51 
2104.68 
2119.97 
2135.36 
2150.87 
2166.5 
2182.23 
2198.09 
2214.05 
2230.14 
