# vtk DataFile Version 3.0
sol
ASCII
DATASET STRUCTURED_POINTS
DIMENSIONS 1 250 1
ORIGIN 0 0 0
SPACING 0.05 4e-05 1
POINT_DATA 250
SCALARS sol float
LOOKUP_TABLE default
2318.74 
2318.79 
2318.89 
2319.04 
2319.23 
2319.48 
2319.78 
2320.12 
2320.52 
2320.96 
2321.45 
2322 
2322.59 
2323.23 
2323.92 
2324.66 
2325.45 
2326.28 
2327.17 
2328.11 
2329.09 
2330.12 
2331.21 
2332.34 
2333.52 
2334.74 
2336.02 
2337.35 
2338.72 
2340.15 
2341.62 
2343.14 
2344.7 
2346.32 
2347.99 
2349.7 
2351.46 
2353.27 
2355.13 
2357.03 
2358.98 
2360.98 
2363.03 
2365.13 
2367.27 
2369.46 
2371.69 
2373.98 
2376.31 
2378.69 
2381.11 
2383.59 
2386.1 
2388.67 
2391.28 
2393.94 
2396.64 
2399.39 
2402.19 
2405.03 
2407.92 
2410.85 
2413.83 
2416.85 
2419.92 
2423.04 
2426.2 
2429.4 
2432.65 
2435.94 
2439.28 
2442.66 
2446.09 
2449.56 
2453.07 
2456.63 
2460.23 
2463.87 
2467.56 
2471.29 
2475.06 
2478.88 
2482.73 
2486.64 
2490.58 
2494.56 
2498.59 
2502.66 
2506.77 
2510.92 
2515.11 
2519.34 
2523.61 
2527.93 
2532.28 
2536.68 
2541.11 
2545.58 
2550.1 
2554.65 
2559.24 
2563.87 
2568.54 
2573.25 
2578 
2582.78 
2587.6 
2592.46 
2597.36 
2602.29 
2607.26 
2612.27 
2617.31 
2622.39 
2627.51 
2632.66 
2637.85 
2643.07 
2648.33 
2653.62 
2658.94 
2664.3 
2669.7 
2675.13 
2680.59 
2686.08 
2691.61 
2697.17 
2702.76 
2708.39 
2714.04 
2719.73 
2725.45 
2731.2 
2736.98 
2742.79 
2748.63 
2754.5 
2760.4 
2766.33 
2772.29 
2778.27 
2784.29 
2790.33 
2796.4 
2802.5 
2808.63 
2814.78 
2820.96 
2827.16 
2833.39 
2839.65 
2845.93 
2852.23 
2858.56 
2864.92 
2871.29 
2877.7 
2884.12 
2890.57 
2897.04 
2903.53 
2910.04 
2916.58 
2923.13 
2929.71 
2936.3 
2942.92 
2949.56 
2956.21 
2962.88 
2969.58 
2976.29 
2983.01 
2989.76 
2996.52 
3003.3 
3010.09 
3016.9 
3023.73 
3030.57 
3037.43 
3044.3 
3051.18 
3058.07 
3064.98 
3071.91 
3078.84 
3085.78 
3092.74 
3099.71 
3106.69 
3113.68 
3120.67 
3127.68 
3134.7 
3141.72 
3148.75 
3155.79 
3162.83 
3169.89 
3176.95 
3184.01 
3191.08 
3198.15 
3205.23 
3212.31 
3219.4 
3226.48 
3233.57 
3240.67 
3247.76 
3254.85 
3261.95 
3269.04 
3276.14 
3283.23 
3290.32 
3297.41 
3304.5 
3311.59 
3318.67 
3325.74 
3332.82 
3339.88 
3346.95 
3354 
3361.05 
3368.1 
3375.13 
3382.16 
3389.18 
3396.18 
3403.18 
3410.17 
3417.15 
3424.12 
3431.08 
3438.02 
3444.95 
3451.87 
3458.77 
3465.66 
3472.53 
3479.39 
3486.23 
3493.06 
3499.86 
3506.65 
3513.42 
