# vtk DataFile Version 3.0
sol
ASCII
DATASET STRUCTURED_POINTS
DIMENSIONS 1 250 1
ORIGIN 0 0 0
SPACING 0.05 4e-05 1
POINT_DATA 250
SCALARS sol float
LOOKUP_TABLE default
1604.35 
1604.42 
1604.55 
1604.76 
1605.03 
1605.37 
1605.77 
1606.25 
1606.79 
1607.4 
1608.08 
1608.82 
1609.63 
1610.52 
1611.46 
1612.48 
1613.56 
1614.71 
1615.93 
1617.22 
1618.57 
1619.99 
1621.48 
1623.04 
1624.66 
1626.36 
1628.12 
1629.94 
1631.84 
1633.8 
1635.83 
1637.93 
1640.09 
1642.32 
1644.62 
1646.99 
1649.42 
1651.92 
1654.49 
1657.13 
1659.83 
1662.6 
1665.44 
1668.34 
1671.31 
1674.35 
1677.46 
1680.63 
1683.87 
1687.18 
1690.55 
1693.99 
1697.5 
1701.07 
1704.71 
1708.42 
1712.19 
1716.04 
1719.94 
1723.92 
1727.96 
1732.07 
1736.24 
1740.48 
1744.79 
1749.16 
1753.6 
1758.1 
1762.67 
1767.31 
1772.01 
1776.78 
1781.62 
1786.52 
1791.49 
1796.52 
1801.62 
1806.78 
1812.01 
1817.3 
1822.67 
1828.09 
1833.58 
1839.14 
1844.76 
1850.44 
1856.19 
1862.01 
1867.89 
1873.84 
1879.85 
1885.92 
1892.06 
1898.26 
1904.53 
1910.86 
1917.26 
1923.72 
1930.24 
1936.83 
1943.48 
1950.19 
1956.97 
1963.81 
1970.72 
1977.69 
1984.72 
1991.81 
1998.97 
2006.19 
2013.47 
2020.82 
2028.22 
2035.69 
2043.22 
2050.82 
2058.47 
2066.19 
2073.97 
2081.81 
2089.71 
2097.67 
2105.69 
2113.78 
2121.92 
2130.13 
2138.4 
2146.72 
2155.11 
2163.55 
2172.06 
2180.63 
2189.25 
2197.94 
2206.68 
2215.48 
2224.34 
2233.26 
2242.24 
2251.28 
2260.37 
2269.52 
2278.73 
2288 
2297.33 
2306.71 
2316.15 
2325.64 
2335.19 
2344.8 
2354.47 
2364.19 
2373.96 
2383.79 
2393.68 
2403.62 
2413.61 
2423.66 
2433.77 
2443.93 
2454.14 
2464.4 
2474.72 
2485.09 
2495.52 
2505.99 
2516.52 
2527.1 
2537.74 
2548.42 
2559.15 
2569.94 
2580.78 
2591.66 
2602.6 
2613.59 
2624.62 
2635.71 
2646.84 
2658.02 
2669.26 
2680.53 
2691.86 
2703.23 
2714.65 
2726.12 
2737.63 
2749.19 
2760.8 
2772.45 
2784.14 
2795.88 
2807.67 
2819.49 
2831.37 
2843.28 
2855.24 
2867.24 
2879.28 
2891.36 
2903.49 
2915.66 
2927.86 
2940.11 
2952.4 
2964.72 
2977.09 
2989.49 
3001.93 
3014.41 
3026.93 
3039.48 
3052.08 
3064.7 
3077.36 
3090.06 
3102.79 
3115.56 
3128.36 
3141.2 
3154.06 
3166.96 
3179.9 
3192.86 
3205.85 
3218.88 
3231.94 
3245.02 
3258.14 
3271.28 
3284.45 
3297.65 
3310.88 
3324.13 
3337.41 
3350.72 
3364.05 
3377.4 
3390.78 
3404.19 
3417.61 
3431.06 
3444.54 
3458.03 
3471.54 
3485.08 
3498.63 
3512.2 
3525.8 
3539.41 
