# vtk DataFile Version 3.0
sol
ASCII
DATASET STRUCTURED_POINTS
DIMENSIONS 1 250 1
ORIGIN 0 0 0
SPACING 0.05 4e-05 1
POINT_DATA 250
SCALARS sol float
LOOKUP_TABLE default
355.693 
355.718 
355.769 
355.844 
355.945 
356.072 
356.224 
356.401 
356.603 
356.831 
357.085 
357.364 
357.669 
358 
358.356 
358.739 
359.148 
359.583 
360.044 
360.532 
361.047 
361.588 
362.156 
362.751 
363.373 
364.023 
364.701 
365.406 
366.139 
366.9 
367.69 
368.508 
369.355 
370.231 
371.136 
372.071 
373.035 
374.03 
375.054 
376.109 
377.195 
378.312 
379.46 
380.64 
381.852 
383.096 
384.372 
385.681 
387.023 
388.398 
389.807 
391.25 
392.727 
394.239 
395.785 
397.367 
398.984 
400.637 
402.326 
404.052 
405.814 
407.612 
409.448 
411.322 
413.233 
415.182 
417.169 
419.195 
421.259 
423.361 
425.503 
427.683 
429.903 
432.161 
434.458 
436.795 
439.17 
441.585 
444.038 
446.53 
449.06 
451.628 
454.233 
456.876 
459.555 
462.271 
465.022 
467.808 
470.628 
473.481 
476.367 
479.283 
482.23 
485.206 
488.21 
491.241 
494.298 
497.378 
500.482 
503.607 
506.752 
509.916 
513.098 
516.296 
519.51 
522.738 
525.98 
529.234 
532.5 
535.777 
539.065 
542.364 
545.675 
548.996 
552.328 
555.673 
559.031 
562.402 
565.788 
569.191 
572.611 
576.05 
579.509 
582.991 
586.496 
590.027 
593.585 
597.172 
600.789 
604.438 
608.12 
611.837 
615.59 
619.379 
623.206 
627.073 
630.978 
634.924 
638.911 
642.94 
647.011 
651.124 
655.28 
659.48 
663.723 
668.011 
672.343 
676.72 
681.143 
685.611 
690.125 
694.686 
699.294 
703.948 
708.651 
713.401 
718.2 
723.047 
727.944 
732.89 
737.886 
742.932 
748.029 
753.177 
758.377 
763.628 
768.932 
774.289 
779.699 
785.162 
790.68 
796.252 
801.878 
807.56 
813.298 
819.092 
824.942 
830.85 
836.815 
842.838 
848.919 
855.059 
861.259 
867.518 
873.837 
880.217 
886.658 
893.161 
899.726 
906.353 
913.043 
919.797 
926.614 
933.497 
940.444 
947.456 
954.534 
961.679 
968.891 
976.17 
983.516 
990.932 
998.416 
1005.97 
1013.59 
1021.29 
1029.05 
1036.89 
1044.8 
1052.78 
1060.83 
1068.96 
1077.16 
1085.44 
1093.79 
1102.21 
1110.72 
1119.3 
1127.96 
1136.69 
1145.5 
1154.4 
1163.37 
1172.42 
1181.56 
1190.77 
1200.07 
1209.45 
1218.91 
1228.46 
1238.08 
1247.8 
1257.6 
1267.49 
1277.46 
1287.52 
1297.66 
1307.9 
1318.23 
1328.64 
1339.14 
1349.74 
1360.43 
1371.2 
1382.07 
1393.04 
1404.1 
1415.25 
1426.5 
1437.84 
