# vtk DataFile Version 3.0
sol
ASCII
DATASET STRUCTURED_POINTS
DIMENSIONS 1 250 1
ORIGIN 0 0 0
SPACING 0.05 4e-05 1
POINT_DATA 250
SCALARS sol float
LOOKUP_TABLE default
593.429 
593.462 
593.527 
593.625 
593.755 
593.918 
594.113 
594.341 
594.602 
594.896 
595.224 
595.584 
595.977 
596.404 
596.864 
597.358 
597.886 
598.448 
599.044 
599.674 
600.339 
601.039 
601.773 
602.543 
603.348 
604.188 
605.064 
605.977 
606.925 
607.91 
608.931 
609.99 
611.085 
612.218 
613.388 
614.596 
615.842 
617.127 
618.45 
619.811 
621.212 
622.651 
624.13 
625.649 
627.207 
628.805 
630.443 
632.122 
633.841 
635.601 
637.402 
639.244 
641.127 
643.052 
645.018 
647.026 
649.077 
651.169 
653.304 
655.482 
657.702 
659.965 
662.271 
664.621 
667.014 
669.451 
671.931 
674.456 
677.025 
679.638 
682.295 
684.998 
687.745 
690.538 
693.375 
696.259 
699.187 
702.162 
705.183 
708.25 
711.363 
714.523 
717.73 
720.984 
724.285 
727.634 
731.03 
734.473 
737.965 
741.505 
745.094 
748.731 
752.416 
756.151 
759.935 
763.769 
767.652 
771.585 
775.568 
779.601 
783.685 
787.82 
792.005 
796.242 
800.53 
804.87 
809.262 
813.706 
818.202 
822.751 
827.353 
832.008 
836.716 
841.478 
846.294 
851.163 
856.088 
861.066 
866.1 
871.189 
876.333 
881.533 
886.789 
892.101 
897.469 
902.895 
908.377 
913.917 
919.514 
925.17 
930.883 
936.656 
942.487 
948.377 
954.326 
960.335 
966.405 
972.534 
978.725 
984.976 
991.289 
997.663 
1004.1 
1010.6 
1017.16 
1023.78 
1030.47 
1037.22 
1044.04 
1050.92 
1057.86 
1064.87 
1071.94 
1079.08 
1086.29 
1093.56 
1100.9 
1108.31 
1115.78 
1123.33 
1130.94 
1138.62 
1146.37 
1154.18 
1162.07 
1170.03 
1178.06 
1186.16 
1194.33 
1202.58 
1210.89 
1219.28 
1227.74 
1236.28 
1244.89 
1253.57 
1262.33 
1271.16 
1280.07 
1289.06 
1298.12 
1307.26 
1316.47 
1325.77 
1335.14 
1344.59 
1354.12 
1363.73 
1373.42 
1383.19 
1393.04 
1402.98 
1412.99 
1423.09 
1433.27 
1443.54 
1453.89 
1464.32 
1474.84 
1485.44 
1496.13 
1506.91 
1517.77 
1528.72 
1539.76 
1550.88 
1562.1 
1573.4 
1584.8 
1596.28 
1607.86 
1619.53 
1631.29 
1643.14 
1655.09 
1667.12 
1679.26 
1691.49 
1703.81 
1716.23 
1728.75 
1741.36 
1754.07 
1766.88 
1779.79 
1792.79 
1805.9 
1819.11 
1832.41 
1845.82 
1859.33 
1872.95 
1886.67 
1900.49 
1914.41 
1928.44 
1942.58 
1956.82 
1971.17 
1985.63 
2000.19 
2014.87 
2029.65 
2044.54 
2059.55 
2074.66 
2089.89 
2105.23 
2120.68 
2136.25 
