# vtk DataFile Version 3.0
sol
ASCII
DATASET STRUCTURED_POINTS
DIMENSIONS 1 250 1
ORIGIN 0 0 0
SPACING 0.05 4e-05 1
POINT_DATA 250
SCALARS sol float
LOOKUP_TABLE default
1561.91 
1561.98 
1562.12 
1562.32 
1562.59 
1562.94 
1563.34 
1563.82 
1564.36 
1564.98 
1565.66 
1566.41 
1567.22 
1568.11 
1569.06 
1570.08 
1571.17 
1572.33 
1573.55 
1574.85 
1576.21 
1577.64 
1579.13 
1580.7 
1582.33 
1584.03 
1585.8 
1587.64 
1589.54 
1591.51 
1593.55 
1595.66 
1597.84 
1600.08 
1602.39 
1604.77 
1607.22 
1609.73 
1612.32 
1614.97 
1617.68 
1620.47 
1623.32 
1626.24 
1629.23 
1632.29 
1635.41 
1638.61 
1641.86 
1645.19 
1648.58 
1652.05 
1655.57 
1659.17 
1662.83 
1666.56 
1670.36 
1674.23 
1678.16 
1682.16 
1686.23 
1690.36 
1694.56 
1698.83 
1703.16 
1707.57 
1712.04 
1716.57 
1721.17 
1725.84 
1730.58 
1735.38 
1740.25 
1745.19 
1750.19 
1755.26 
1760.4 
1765.6 
1770.87 
1776.2 
1781.6 
1787.07 
1792.6 
1798.2 
1803.87 
1809.6 
1815.39 
1821.26 
1827.18 
1833.18 
1839.24 
1845.36 
1851.55 
1857.81 
1864.13 
1870.52 
1876.97 
1883.48 
1890.07 
1896.71 
1903.42 
1910.2 
1917.04 
1923.94 
1930.91 
1937.95 
1945.05 
1952.21 
1959.43 
1966.72 
1974.08 
1981.49 
1988.97 
1996.52 
2004.13 
2011.8 
2019.53 
2027.33 
2035.19 
2043.11 
2051.1 
2059.15 
2067.26 
2075.43 
2083.67 
2091.96 
2100.32 
2108.74 
2117.22 
2125.77 
2134.37 
2143.04 
2151.77 
2160.55 
2169.4 
2178.31 
2187.28 
2196.31 
2205.4 
2214.55 
2223.76 
2233.03 
2242.35 
2251.74 
2261.19 
2270.69 
2280.25 
2289.87 
2299.55 
2309.29 
2319.09 
2328.94 
2338.85 
2348.82 
2358.84 
2368.93 
2379.06 
2389.26 
2399.51 
2409.81 
2420.18 
2430.59 
2441.07 
2451.59 
2462.17 
2472.81 
2483.5 
2494.25 
2505.04 
2515.9 
2526.8 
2537.76 
2548.77 
2559.83 
2570.95 
2582.11 
2593.33 
2604.6 
2615.92 
2627.29 
2638.71 
2650.18 
2661.7 
2673.28 
2684.89 
2696.56 
2708.28 
2720.05 
2731.86 
2743.72 
2755.63 
2767.58 
2779.58 
2791.63 
2803.72 
2815.86 
2828.05 
2840.27 
2852.55 
2864.86 
2877.23 
2889.63 
2902.08 
2914.57 
2927.1 
2939.67 
2952.29 
2964.94 
2977.64 
2990.38 
3003.15 
3015.97 
3028.82 
3041.72 
3054.65 
3067.62 
3080.63 
3093.67 
3106.75 
3119.86 
3133.02 
3146.2 
3159.42 
3172.68 
3185.97 
3199.29 
3212.64 
3226.03 
3239.45 
3252.9 
3266.38 
3279.89 
3293.43 
3307 
3320.6 
3334.23 
3347.88 
3361.57 
3375.28 
3389.01 
3402.77 
3416.56 
3430.37 
3444.21 
3458.06 
3471.95 
3485.85 
3499.78 
3513.72 
3527.69 
