# vtk DataFile Version 3.0
sol
ASCII
DATASET STRUCTURED_POINTS
DIMENSIONS 1 250 1
ORIGIN 0 0 0
SPACING 0.05 4e-05 1
POINT_DATA 250
SCALARS sol float
LOOKUP_TABLE default
778.041 
778.089 
778.184 
778.327 
778.518 
778.756 
779.042 
779.376 
779.757 
780.187 
780.664 
781.189 
781.761 
782.382 
783.05 
783.767 
784.531 
785.343 
786.204 
787.112 
788.069 
789.074 
790.127 
791.229 
792.378 
793.577 
794.823 
796.119 
797.463 
798.855 
800.297 
801.787 
803.326 
804.915 
806.552 
808.239 
809.975 
811.76 
813.594 
815.479 
817.413 
819.396 
821.43 
823.513 
825.647 
827.831 
830.065 
832.35 
834.685 
837.071 
839.507 
841.995 
844.534 
847.123 
849.765 
852.457 
855.201 
857.997 
860.845 
863.745 
866.697 
869.702 
872.759 
875.869 
879.031 
882.247 
885.515 
888.837 
892.213 
895.642 
899.125 
902.662 
906.253 
909.899 
913.599 
917.354 
921.163 
925.028 
928.949 
932.925 
936.956 
941.044 
945.187 
949.388 
953.644 
957.958 
962.328 
966.756 
971.241 
975.783 
980.384 
985.043 
989.76 
994.535 
999.37 
1004.26 
1009.22 
1014.23 
1019.3 
1024.43 
1029.62 
1034.88 
1040.19 
1045.57 
1051 
1056.5 
1062.06 
1067.68 
1073.37 
1079.11 
1084.92 
1090.79 
1096.73 
1102.73 
1108.79 
1114.92 
1121.12 
1127.37 
1133.7 
1140.08 
1146.54 
1153.06 
1159.65 
1166.3 
1173.02 
1179.81 
1186.67 
1193.59 
1200.58 
1207.64 
1214.77 
1221.97 
1229.24 
1236.58 
1243.99 
1251.47 
1259.02 
1266.64 
1274.33 
1282.1 
1289.93 
1297.84 
1305.83 
1313.89 
1322.02 
1330.22 
1338.5 
1346.85 
1355.28 
1363.79 
1372.37 
1381.03 
1389.76 
1398.57 
1407.46 
1416.43 
1425.47 
1434.6 
1443.8 
1453.08 
1462.44 
1471.89 
1481.41 
1491.01 
1500.7 
1510.47 
1520.32 
1530.25 
1540.27 
1550.37 
1560.55 
1570.82 
1581.17 
1591.61 
1602.13 
1612.74 
1623.44 
1634.22 
1645.1 
1656.06 
1667.1 
1678.24 
1689.47 
1700.78 
1712.19 
1723.69 
1735.28 
1746.96 
1758.73 
1770.59 
1782.55 
1794.6 
1806.75 
1818.99 
1831.32 
1843.76 
1856.28 
1868.91 
1881.63 
1894.44 
1907.36 
1920.38 
1933.49 
1946.7 
1960.02 
1973.43 
1986.94 
2000.56 
2014.28 
2028.1 
2042.03 
2056.06 
2070.19 
2084.43 
2098.77 
2113.22 
2127.77 
2142.44 
2157.21 
2172.09 
2187.07 
2202.17 
2217.37 
2232.69 
2248.12 
2263.66 
2279.31 
2295.07 
2310.95 
2326.94 
2343.04 
2359.26 
2375.6 
2392.05 
2408.62 
2425.31 
2442.11 
2459.03 
2476.08 
2493.24 
2510.52 
2527.92 
2545.45 
2563.09 
2580.86 
2598.76 
2616.77 
2634.91 
2653.18 
2671.58 
