# vtk DataFile Version 3.0
sol
ASCII
DATASET STRUCTURED_POINTS
DIMENSIONS 1 250 1
ORIGIN 0 0 0
SPACING 0.05 4e-05 1
POINT_DATA 250
SCALARS sol float
LOOKUP_TABLE default
748.705 
748.751 
748.843 
748.981 
749.165 
749.395 
749.672 
749.994 
750.363 
750.778 
751.239 
751.746 
752.299 
752.899 
753.544 
754.237 
754.975 
755.76 
756.591 
757.469 
758.394 
759.365 
760.382 
761.447 
762.558 
763.716 
764.921 
766.173 
767.471 
768.817 
770.211 
771.651 
773.139 
774.674 
776.256 
777.887 
779.565 
781.29 
783.064 
784.885 
786.755 
788.673 
790.639 
792.653 
794.716 
796.828 
798.988 
801.197 
803.456 
805.763 
808.119 
810.525 
812.98 
815.485 
818.04 
820.644 
823.299 
826.004 
828.759 
831.564 
834.421 
837.328 
840.285 
843.294 
846.355 
849.466 
852.63 
855.845 
859.111 
862.43 
865.802 
869.226 
872.702 
876.231 
879.813 
883.449 
887.138 
890.88 
894.676 
898.526 
902.431 
906.39 
910.403 
914.471 
918.594 
922.773 
927.006 
931.296 
935.641 
940.043 
944.501 
949.015 
953.586 
958.214 
962.9 
967.643 
972.443 
977.302 
982.219 
987.194 
992.229 
997.322 
1002.47 
1007.69 
1012.96 
1018.29 
1023.68 
1029.13 
1034.65 
1040.22 
1045.86 
1051.55 
1057.31 
1063.14 
1069.02 
1074.97 
1080.98 
1087.05 
1093.19 
1099.39 
1105.65 
1111.98 
1118.38 
1124.84 
1131.36 
1137.95 
1144.61 
1151.33 
1158.13 
1164.98 
1171.91 
1178.9 
1185.96 
1193.09 
1200.29 
1207.55 
1214.89 
1222.3 
1229.77 
1237.32 
1244.94 
1252.63 
1260.39 
1268.22 
1276.12 
1284.1 
1292.15 
1300.27 
1308.47 
1316.74 
1325.08 
1333.5 
1342 
1350.57 
1359.21 
1367.94 
1376.74 
1385.61 
1394.57 
1403.6 
1412.71 
1421.9 
1431.17 
1440.51 
1449.94 
1459.45 
1469.04 
1478.71 
1488.46 
1498.29 
1508.21 
1518.21 
1528.29 
1538.45 
1548.7 
1559.04 
1569.46 
1579.96 
1590.55 
1601.23 
1611.99 
1622.85 
1633.78 
1644.81 
1655.93 
1667.13 
1678.43 
1689.81 
1701.29 
1712.85 
1724.51 
1736.26 
1748.1 
1760.04 
1772.07 
1784.19 
1796.41 
1808.72 
1821.13 
1833.63 
1846.23 
1858.92 
1871.72 
1884.61 
1897.6 
1910.69 
1923.88 
1937.17 
1950.56 
1964.05 
1977.64 
1991.33 
2005.13 
2019.03 
2033.03 
2047.14 
2061.35 
2075.67 
2090.09 
2104.62 
2119.26 
2134.01 
2148.86 
2163.82 
2178.89 
2194.07 
2209.36 
2224.76 
2240.28 
2255.9 
2271.64 
2287.5 
2303.46 
2319.54 
2335.74 
2352.05 
2368.48 
2385.02 
2401.68 
2418.46 
2435.36 
2452.38 
2469.52 
2486.77 
2504.15 
2521.66 
2539.28 
2557.03 
2574.9 
2592.89 
