# vtk DataFile Version 3.0
sol
ASCII
DATASET STRUCTURED_POINTS
DIMENSIONS 1 250 1
ORIGIN 0 0 0
SPACING 0.05 4e-05 1
POINT_DATA 250
SCALARS sol float
LOOKUP_TABLE default
336.061 
336.08 
336.118 
336.175 
336.251 
336.347 
336.461 
336.595 
336.748 
336.92 
337.112 
337.323 
337.554 
337.804 
338.073 
338.363 
338.672 
339.001 
339.35 
339.72 
340.109 
340.519 
340.95 
341.401 
341.873 
342.366 
342.88 
343.415 
343.972 
344.55 
345.15 
345.773 
346.417 
347.084 
347.773 
348.486 
349.221 
349.98 
350.762 
351.568 
352.398 
353.252 
354.131 
355.034 
355.963 
356.917 
357.897 
358.903 
359.935 
360.993 
362.079 
363.191 
364.331 
365.499 
366.696 
367.92 
369.174 
370.457 
371.769 
373.111 
374.484 
375.887 
377.321 
378.787 
380.285 
381.815 
383.377 
384.972 
386.601 
388.264 
389.96 
391.691 
393.457 
395.259 
397.096 
398.969 
400.878 
402.824 
404.808 
406.828 
408.887 
410.984 
413.119 
415.293 
417.506 
419.759 
422.05 
424.382 
426.753 
429.164 
431.616 
434.107 
436.639 
439.211 
441.822 
444.474 
447.166 
449.897 
452.667 
455.476 
458.323 
461.208 
464.13 
467.088 
470.083 
473.112 
476.175 
479.27 
482.398 
485.556 
488.743 
491.958 
495.2 
498.467 
501.758 
505.071 
508.404 
511.757 
515.127 
518.515 
521.917 
525.333 
528.762 
532.204 
535.656 
539.119 
542.593 
546.076 
549.57 
553.074 
556.589 
560.116 
563.655 
567.208 
570.775 
574.359 
577.961 
581.583 
585.226 
588.892 
592.584 
596.302 
600.049 
603.827 
607.637 
611.482 
615.362 
619.278 
623.233 
627.227 
631.262 
635.337 
639.455 
643.616 
647.82 
652.069 
656.362 
660.7 
665.083 
669.513 
673.989 
678.512 
683.082 
687.7 
692.366 
697.08 
701.844 
706.656 
711.519 
716.431 
721.394 
726.408 
731.474 
736.591 
741.761 
746.983 
752.258 
757.587 
762.97 
768.407 
773.899 
779.447 
785.05 
790.709 
796.426 
802.199 
808.03 
813.919 
819.866 
825.873 
831.938 
838.064 
844.251 
850.498 
856.806 
863.177 
869.61 
876.105 
882.664 
889.287 
895.974 
902.726 
909.543 
916.426 
923.376 
930.392 
937.476 
944.627 
951.847 
959.136 
966.495 
973.923 
981.422 
988.992 
996.634 
1004.35 
1012.13 
1019.99 
1027.93 
1035.93 
1044.02 
1052.17 
1060.41 
1068.72 
1077.11 
1085.57 
1094.12 
1102.74 
1111.44 
1120.22 
1129.08 
1138.03 
1147.05 
1156.16 
1165.35 
1174.63 
1183.98 
1193.43 
1202.95 
1212.57 
1222.27 
1232.06 
1241.93 
1251.9 
1261.95 
1272.09 
1282.32 
1292.65 
1303.06 
1313.57 
