# vtk DataFile Version 3.0
sol
ASCII
DATASET STRUCTURED_POINTS
DIMENSIONS 1 250 1
ORIGIN 0 0 0
SPACING 0.05 4e-05 1
POINT_DATA 250
SCALARS sol float
LOOKUP_TABLE default
295.405 
295.407 
295.411 
295.417 
295.425 
295.434 
295.446 
295.46 
295.475 
295.493 
295.513 
295.534 
295.558 
295.584 
295.611 
295.641 
295.673 
295.707 
295.743 
295.781 
295.822 
295.864 
295.909 
295.956 
296.006 
296.057 
296.111 
296.168 
296.226 
296.288 
296.351 
296.418 
296.486 
296.558 
296.632 
296.708 
296.788 
296.87 
296.955 
297.043 
297.134 
297.227 
297.324 
297.424 
297.527 
297.633 
297.743 
297.856 
297.972 
298.092 
298.215 
298.342 
298.472 
298.607 
298.745 
298.887 
299.033 
299.183 
299.337 
299.496 
299.658 
299.826 
299.997 
300.174 
300.355 
300.541 
300.732 
300.927 
301.128 
301.335 
301.546 
301.763 
301.986 
302.214 
302.448 
302.688 
302.934 
303.187 
303.446 
303.711 
303.983 
304.262 
304.547 
304.84 
305.14 
305.447 
305.762 
306.085 
306.416 
306.754 
307.101 
307.457 
307.821 
308.194 
308.576 
308.967 
309.367 
309.777 
310.197 
310.628 
311.068 
311.519 
311.981 
312.453 
312.937 
313.432 
313.939 
314.459 
314.99 
315.534 
316.091 
316.66 
317.244 
317.841 
318.451 
319.077 
319.717 
320.371 
321.041 
321.727 
322.429 
323.147 
323.882 
324.633 
325.403 
326.19 
326.995 
327.819 
328.662 
329.524 
330.407 
331.309 
332.233 
333.178 
334.144 
335.133 
336.144 
337.179 
338.237 
339.32 
340.428 
341.56 
342.719 
343.904 
345.117 
346.357 
347.625 
348.922 
350.249 
351.605 
352.993 
354.412 
355.864 
357.348 
358.866 
360.418 
362.006 
363.629 
365.288 
366.986 
368.721 
370.495 
372.309 
374.164 
376.06 
377.999 
379.981 
382.007 
384.077 
386.194 
388.358 
390.569 
392.828 
395.138 
397.497 
399.908 
402.372 
404.888 
407.459 
410.085 
412.766 
415.505 
418.301 
421.155 
424.069 
427.043 
430.078 
433.174 
436.332 
439.553 
442.836 
446.184 
449.595 
453.07 
456.609 
460.211 
463.878 
467.608 
471.401 
475.256 
479.172 
483.149 
487.184 
491.276 
495.424 
499.625 
503.878 
508.179 
512.527 
516.917 
521.348 
525.816 
530.318 
534.85 
539.41 
543.995 
548.601 
553.225 
557.866 
562.521 
567.188 
571.867 
576.557 
581.257 
585.969 
590.693 
595.43 
600.184 
604.957 
609.751 
614.57 
619.418 
624.299 
629.216 
634.174 
639.176 
644.225 
649.326 
654.482 
659.695 
664.968 
670.304 
675.704 
681.169 
686.703 
692.305 
697.977 
703.72 
709.534 
715.421 
