# vtk DataFile Version 3.0
sol
ASCII
DATASET STRUCTURED_POINTS
DIMENSIONS 1 250 1
ORIGIN 0 0 0
SPACING 0.05 4e-05 1
POINT_DATA 250
SCALARS sol float
LOOKUP_TABLE default
2611.86 
2611.89 
2611.96 
2612.06 
2612.2 
2612.37 
2612.58 
2612.82 
2613.09 
2613.4 
2613.75 
2614.12 
2614.53 
2614.98 
2615.46 
2615.97 
2616.52 
2617.1 
2617.72 
2618.37 
2619.05 
2619.77 
2620.52 
2621.31 
2622.12 
2622.98 
2623.86 
2624.78 
2625.74 
2626.72 
2627.74 
2628.8 
2629.88 
2631 
2632.15 
2633.34 
2634.56 
2635.81 
2637.09 
2638.41 
2639.76 
2641.14 
2642.56 
2644 
2645.48 
2646.99 
2648.54 
2650.11 
2651.72 
2653.36 
2655.03 
2656.73 
2658.46 
2660.23 
2662.02 
2663.85 
2665.71 
2667.6 
2669.51 
2671.46 
2673.44 
2675.45 
2677.49 
2679.56 
2681.66 
2683.79 
2685.95 
2688.14 
2690.36 
2692.61 
2694.88 
2697.19 
2699.52 
2701.88 
2704.28 
2706.69 
2709.14 
2711.61 
2714.12 
2716.65 
2719.2 
2721.79 
2724.4 
2727.04 
2729.7 
2732.39 
2735.11 
2737.85 
2740.62 
2743.41 
2746.23 
2749.08 
2751.95 
2754.84 
2757.76 
2760.7 
2763.67 
2766.66 
2769.68 
2772.72 
2775.78 
2778.87 
2781.98 
2785.11 
2788.26 
2791.43 
2794.63 
2797.85 
2801.09 
2804.35 
2807.64 
2810.94 
2814.26 
2817.61 
2820.97 
2824.36 
2827.76 
2831.18 
2834.62 
2838.08 
2841.56 
2845.06 
2848.57 
2852.1 
2855.65 
2859.22 
2862.8 
2866.4 
2870.02 
2873.65 
2877.29 
2880.96 
2884.63 
2888.33 
2892.03 
2895.75 
2899.49 
2903.24 
2907 
2910.77 
2914.56 
2918.36 
2922.17 
2925.99 
2929.82 
2933.67 
2937.52 
2941.39 
2945.26 
2949.15 
2953.04 
2956.95 
2960.86 
2964.78 
2968.71 
2972.64 
2976.58 
2980.53 
2984.49 
2988.45 
2992.42 
2996.4 
3000.37 
3004.36 
3008.35 
3012.34 
3016.33 
3020.33 
3024.33 
3028.34 
3032.34 
3036.35 
3040.36 
3044.37 
3048.38 
3052.39 
3056.4 
3060.41 
3064.42 
3068.43 
3072.43 
3076.43 
3080.43 
3084.43 
3088.43 
3092.42 
3096.4 
3100.38 
3104.36 
3108.33 
3112.29 
3116.25 
3120.2 
3124.14 
3128.07 
3132 
3135.92 
3139.82 
3143.72 
3147.61 
3151.49 
3155.36 
3159.21 
3163.06 
3166.89 
3170.71 
3174.51 
3178.31 
3182.08 
3185.85 
3189.59 
3193.32 
3197.04 
3200.74 
3204.42 
3208.09 
3211.73 
3215.36 
3218.97 
3222.56 
3226.12 
3229.67 
3233.2 
3236.7 
3240.19 
3243.65 
3247.09 
3250.5 
3253.89 
3257.25 
3260.59 
3263.91 
3267.19 
3270.45 
3273.69 
3276.89 
3280.07 
3283.22 
3286.33 
3289.42 
3292.48 
3295.51 
3298.5 
3301.46 
3304.39 
3307.29 
3310.15 
3312.98 
3315.77 
3318.52 
