# vtk DataFile Version 3.0
sol
ASCII
DATASET STRUCTURED_POINTS
DIMENSIONS 1 250 1
ORIGIN 0 0 0
SPACING 0.05 4e-05 1
POINT_DATA 250
SCALARS sol float
LOOKUP_TABLE default
319.806 
319.819 
319.845 
319.885 
319.938 
320.005 
320.084 
320.177 
320.284 
320.404 
320.537 
320.684 
320.844 
321.018 
321.206 
321.408 
321.623 
321.853 
322.096 
322.354 
322.626 
322.912 
323.212 
323.527 
323.857 
324.202 
324.561 
324.936 
325.326 
325.731 
326.152 
326.588 
327.04 
327.508 
327.993 
328.493 
329.01 
329.544 
330.095 
330.663 
331.249 
331.851 
332.472 
333.111 
333.768 
334.443 
335.137 
335.85 
336.583 
337.335 
338.106 
338.898 
339.71 
340.542 
341.396 
342.271 
343.167 
344.085 
345.025 
345.988 
346.973 
347.982 
349.014 
350.07 
351.15 
352.255 
353.385 
354.54 
355.72 
356.927 
358.16 
359.421 
360.708 
362.023 
363.367 
364.739 
366.139 
367.57 
369.03 
370.52 
372.042 
373.594 
375.178 
376.795 
378.443 
380.125 
381.841 
383.59 
385.374 
387.193 
389.047 
390.938 
392.864 
394.827 
396.828 
398.866 
400.943 
403.058 
405.212 
407.406 
409.64 
411.914 
414.228 
416.584 
418.98 
421.419 
423.899 
426.421 
428.986 
431.593 
434.242 
436.935 
439.67 
442.447 
445.267 
448.13 
451.034 
453.98 
456.968 
459.996 
463.065 
466.174 
469.321 
472.506 
475.729 
478.987 
482.28 
485.607 
488.965 
492.355 
495.774 
499.22 
502.693 
506.189 
509.709 
513.249 
516.809 
520.386 
523.979 
527.587 
531.209 
534.843 
538.488 
542.144 
545.809 
549.485 
553.17 
556.864 
560.57 
564.286 
568.014 
571.756 
575.512 
579.284 
583.075 
586.886 
590.719 
594.576 
598.459 
602.371 
606.313 
610.288 
614.298 
618.343 
622.427 
626.55 
630.714 
634.921 
639.171 
643.465 
647.804 
652.189 
656.622 
661.101 
665.628 
670.204 
674.829 
679.503 
684.227 
689.002 
693.827 
698.704 
703.632 
708.612 
713.645 
718.731 
723.871 
729.064 
734.312 
739.615 
744.973 
750.387 
755.857 
761.384 
766.969 
772.611 
778.311 
784.07 
789.888 
795.766 
801.704 
807.703 
813.762 
819.884 
826.068 
832.314 
838.624 
844.997 
851.434 
857.937 
864.504 
871.138 
877.837 
884.604 
891.438 
898.34 
905.31 
912.349 
919.458 
926.637 
933.887 
941.208 
948.601 
956.066 
963.604 
971.215 
978.901 
986.661 
994.496 
1002.41 
1010.39 
1018.46 
1026.6 
1034.82 
1043.12 
1051.5 
1059.95 
1068.49 
1077.11 
1085.81 
1094.59 
1103.46 
1112.41 
1121.44 
1130.56 
1139.77 
1149.05 
1158.43 
1167.89 
1177.45 
