# vtk DataFile Version 3.0
sol
ASCII
DATASET STRUCTURED_POINTS
DIMENSIONS 1 250 1
ORIGIN 0 0 0
SPACING 0.05 4e-05 1
POINT_DATA 250
SCALARS sol float
LOOKUP_TABLE default
1879.71 
1879.77 
1879.9 
1880.09 
1880.34 
1880.65 
1881.03 
1881.48 
1881.98 
1882.55 
1883.19 
1883.88 
1884.64 
1885.46 
1886.35 
1887.3 
1888.31 
1889.38 
1890.52 
1891.72 
1892.98 
1894.31 
1895.7 
1897.15 
1898.67 
1900.25 
1901.89 
1903.59 
1905.36 
1907.19 
1909.08 
1911.03 
1913.05 
1915.13 
1917.27 
1919.48 
1921.74 
1924.07 
1926.46 
1928.92 
1931.43 
1934.01 
1936.65 
1939.35 
1942.12 
1944.94 
1947.83 
1950.78 
1953.79 
1956.86 
1960 
1963.19 
1966.45 
1969.77 
1973.15 
1976.59 
1980.09 
1983.65 
1987.27 
1990.96 
1994.7 
1998.51 
2002.37 
2006.3 
2010.29 
2014.33 
2018.44 
2022.61 
2026.83 
2031.12 
2035.47 
2039.87 
2044.34 
2048.86 
2053.45 
2058.09 
2062.79 
2067.55 
2072.37 
2077.25 
2082.19 
2087.18 
2092.24 
2097.35 
2102.52 
2107.75 
2113.03 
2118.38 
2123.78 
2129.24 
2134.75 
2140.32 
2145.95 
2151.64 
2157.38 
2163.18 
2169.04 
2174.95 
2180.92 
2186.94 
2193.02 
2199.16 
2205.35 
2211.59 
2217.89 
2224.25 
2230.66 
2237.13 
2243.64 
2250.22 
2256.85 
2263.53 
2270.26 
2277.05 
2283.89 
2290.78 
2297.73 
2304.73 
2311.78 
2318.89 
2326.04 
2333.25 
2340.51 
2347.82 
2355.19 
2362.6 
2370.06 
2377.58 
2385.14 
2392.76 
2400.42 
2408.14 
2415.9 
2423.72 
2431.58 
2439.49 
2447.45 
2455.45 
2463.51 
2471.61 
2479.76 
2487.96 
2496.21 
2504.5 
2512.84 
2521.22 
2529.65 
2538.13 
2546.65 
2555.21 
2563.82 
2572.48 
2581.18 
2589.92 
2598.71 
2607.54 
2616.41 
2625.33 
2634.29 
2643.29 
2652.33 
2661.42 
2670.54 
2679.71 
2688.92 
2698.17 
2707.45 
2716.78 
2726.15 
2735.55 
2745 
2754.48 
2764 
2773.56 
2783.16 
2792.79 
2802.46 
2812.17 
2821.91 
2831.69 
2841.5 
2851.35 
2861.23 
2871.15 
2881.1 
2891.09 
2901.1 
2911.15 
2921.24 
2931.35 
2941.5 
2951.67 
2961.88 
2972.12 
2982.39 
2992.69 
3003.01 
3013.37 
3023.75 
3034.16 
3044.6 
3055.07 
3065.56 
3076.08 
3086.63 
3097.2 
3107.79 
3118.42 
3129.06 
3139.73 
3150.42 
3161.13 
3171.87 
3182.63 
3193.4 
3204.2 
3215.03 
3225.87 
3236.73 
3247.6 
3258.5 
3269.42 
3280.35 
3291.3 
3302.27 
3313.25 
3324.25 
3335.26 
3346.29 
3357.33 
3368.39 
3379.46 
3390.54 
3401.64 
3412.74 
3423.86 
3434.98 
3446.12 
3457.27 
3468.42 
3479.58 
3490.75 
3501.93 
3513.12 
3524.31 
3535.51 
3546.71 
3557.91 
3569.12 
3580.34 
