# vtk DataFile Version 3.0
sol
ASCII
DATASET STRUCTURED_POINTS
DIMENSIONS 1 250 1
ORIGIN 0 0 0
SPACING 0.05 4e-05 1
POINT_DATA 250
SCALARS sol float
LOOKUP_TABLE default
387.518 
387.552 
387.62 
387.723 
387.86 
388.031 
388.237 
388.477 
388.751 
389.06 
389.404 
389.782 
390.194 
390.642 
391.125 
391.642 
392.195 
392.782 
393.405 
394.064 
394.758 
395.488 
396.254 
397.056 
397.894 
398.768 
399.679 
400.626 
401.61 
402.631 
403.69 
404.785 
405.919 
407.089 
408.298 
409.545 
410.83 
412.153 
413.514 
414.915 
416.354 
417.832 
419.349 
420.906 
422.502 
424.137 
425.812 
427.526 
429.28 
431.074 
432.907 
434.78 
436.693 
438.646 
440.637 
442.669 
444.739 
446.849 
448.997 
451.184 
453.408 
455.671 
457.971 
460.308 
462.681 
465.09 
467.535 
470.013 
472.526 
475.071 
477.648 
480.256 
482.895 
485.562 
488.258 
490.981 
493.729 
496.503 
499.3 
502.119 
504.959 
507.82 
510.7 
513.598 
516.512 
519.443 
522.389 
525.349 
528.324 
531.311 
534.312 
537.325 
540.351 
543.389 
546.441 
549.505 
552.583 
555.676 
558.784 
561.908 
565.049 
568.209 
571.388 
574.588 
577.81 
581.056 
584.327 
587.624 
590.95 
594.304 
597.689 
601.106 
604.556 
608.039 
611.558 
615.113 
618.704 
622.333 
626.001 
629.707 
633.452 
637.238 
641.063 
644.93 
648.838 
652.787 
656.778 
660.812 
664.888 
669.006 
673.168 
677.374 
681.623 
685.917 
690.255 
694.638 
699.066 
703.54 
708.06 
712.626 
717.238 
721.897 
726.604 
731.358 
736.16 
741.01 
745.909 
750.857 
755.855 
760.902 
765.999 
771.147 
776.346 
781.596 
786.898 
792.252 
797.658 
803.117 
808.629 
814.195 
819.815 
825.489 
831.218 
837.002 
842.842 
848.738 
854.69 
860.7 
866.766 
872.89 
879.073 
885.313 
891.613 
897.972 
904.391 
910.871 
917.411 
924.012 
930.675 
937.4 
944.187 
951.037 
957.951 
964.929 
971.971 
979.077 
986.249 
993.487 
1000.79 
1008.16 
1015.6 
1023.1 
1030.68 
1038.32 
1046.03 
1053.81 
1061.66 
1069.58 
1077.58 
1085.64 
1093.78 
1101.99 
1110.27 
1118.62 
1127.05 
1135.56 
1144.13 
1152.79 
1161.52 
1170.33 
1179.21 
1188.18 
1197.22 
1206.34 
1215.54 
1224.82 
1234.17 
1243.62 
1253.14 
1262.74 
1272.43 
1282.2 
1292.05 
1301.99 
1312.02 
1322.12 
1332.32 
1342.6 
1352.97 
1363.43 
1373.97 
1384.61 
1395.33 
1406.14 
1417.05 
1428.05 
1439.13 
1450.31 
1461.59 
1472.96 
1484.42 
1495.97 
1507.63 
1519.38 
1531.22 
1543.16 
1555.21 
1567.35 
1579.59 
1591.92 
