# vtk DataFile Version 3.0
sol
ASCII
DATASET STRUCTURED_POINTS
DIMENSIONS 1 250 1
ORIGIN 0 0 0
SPACING 0.05 4e-05 1
POINT_DATA 250
SCALARS sol float
LOOKUP_TABLE default
772.093 
772.14 
772.235 
772.377 
772.567 
772.803 
773.087 
773.419 
773.798 
774.224 
774.698 
775.219 
775.788 
776.405 
777.069 
777.78 
778.539 
779.346 
780.201 
781.103 
782.054 
783.052 
784.098 
785.192 
786.334 
787.524 
788.763 
790.049 
791.384 
792.768 
794.2 
795.68 
797.209 
798.787 
800.413 
802.089 
803.813 
805.586 
807.409 
809.28 
811.202 
813.172 
815.192 
817.262 
819.382 
821.551 
823.77 
826.04 
828.36 
830.73 
833.151 
835.622 
838.144 
840.717 
843.341 
846.016 
848.742 
851.52 
854.349 
857.23 
860.163 
863.148 
866.186 
869.275 
872.417 
875.612 
878.86 
882.16 
885.514 
888.921 
892.382 
895.896 
899.465 
903.087 
906.764 
910.495 
914.28 
918.121 
922.016 
925.967 
929.973 
934.035 
938.153 
942.326 
946.556 
950.843 
955.186 
959.586 
964.043 
968.558 
973.13 
977.759 
982.447 
987.194 
991.998 
996.862 
1001.78 
1006.77 
1011.81 
1016.91 
1022.07 
1027.29 
1032.57 
1037.91 
1043.32 
1048.78 
1054.31 
1059.89 
1065.54 
1071.26 
1077.03 
1082.87 
1088.77 
1094.73 
1100.76 
1106.85 
1113.01 
1119.23 
1125.52 
1131.87 
1138.28 
1144.77 
1151.32 
1157.93 
1164.61 
1171.36 
1178.18 
1185.06 
1192.01 
1199.03 
1206.12 
1213.28 
1220.51 
1227.8 
1235.17 
1242.61 
1250.11 
1257.69 
1265.34 
1273.06 
1280.86 
1288.72 
1296.66 
1304.67 
1312.76 
1320.92 
1329.15 
1337.46 
1345.84 
1354.3 
1362.83 
1371.44 
1380.13 
1388.89 
1397.73 
1406.65 
1415.65 
1424.72 
1433.87 
1443.11 
1452.42 
1461.81 
1471.28 
1480.83 
1490.47 
1500.18 
1509.98 
1519.86 
1529.82 
1539.87 
1550 
1560.21 
1570.51 
1580.9 
1591.37 
1601.92 
1612.56 
1623.29 
1634.11 
1645.01 
1656 
1667.08 
1678.25 
1689.51 
1700.86 
1712.3 
1723.82 
1735.45 
1747.16 
1758.96 
1770.86 
1782.85 
1794.94 
1807.12 
1819.39 
1831.76 
1844.23 
1856.79 
1869.44 
1882.2 
1895.05 
1908 
1921.05 
1934.2 
1947.45 
1960.8 
1974.25 
1987.8 
2001.45 
2015.21 
2029.07 
2043.03 
2057.09 
2071.26 
2085.54 
2099.92 
2114.41 
2129 
2143.7 
2158.51 
2173.43 
2188.45 
2203.59 
2218.83 
2234.19 
2249.66 
2265.24 
2280.93 
2296.73 
2312.65 
2328.68 
2344.83 
2361.09 
2377.47 
2393.96 
2410.57 
2427.3 
2444.15 
2461.11 
2478.2 
2495.4 
2512.73 
2530.18 
2547.75 
2565.44 
2583.25 
2601.19 
2619.25 
2637.44 
2655.76 
