# vtk DataFile Version 3.0
sol
ASCII
DATASET STRUCTURED_POINTS
DIMENSIONS 1 250 1
ORIGIN 0 0 0
SPACING 0.05 4e-05 1
POINT_DATA 250
SCALARS sol float
LOOKUP_TABLE default
2440.97 
2441.01 
2441.1 
2441.23 
2441.41 
2441.63 
2441.89 
2442.2 
2442.55 
2442.94 
2443.38 
2443.86 
2444.39 
2444.96 
2445.57 
2446.23 
2446.93 
2447.67 
2448.46 
2449.29 
2450.17 
2451.08 
2452.05 
2453.05 
2454.1 
2455.19 
2456.32 
2457.5 
2458.72 
2459.98 
2461.29 
2462.64 
2464.03 
2465.47 
2466.94 
2468.46 
2470.03 
2471.63 
2473.28 
2474.97 
2476.7 
2478.48 
2480.29 
2482.15 
2484.05 
2485.99 
2487.97 
2490 
2492.06 
2494.17 
2496.32 
2498.51 
2500.74 
2503.01 
2505.33 
2507.68 
2510.07 
2512.51 
2514.98 
2517.5 
2520.05 
2522.65 
2525.28 
2527.96 
2530.67 
2533.43 
2536.22 
2539.05 
2541.92 
2544.83 
2547.78 
2550.77 
2553.79 
2556.85 
2559.96 
2563.1 
2566.27 
2569.49 
2572.74 
2576.03 
2579.36 
2582.72 
2586.12 
2589.56 
2593.03 
2596.54 
2600.09 
2603.67 
2607.28 
2610.94 
2614.62 
2618.35 
2622.1 
2625.9 
2629.72 
2633.58 
2637.48 
2641.41 
2645.37 
2649.37 
2653.4 
2657.46 
2661.55 
2665.68 
2669.84 
2674.03 
2678.26 
2682.51 
2686.8 
2691.12 
2695.47 
2699.85 
2704.26 
2708.7 
2713.17 
2717.67 
2722.2 
2726.75 
2731.34 
2735.96 
2740.6 
2745.28 
2749.98 
2754.7 
2759.46 
2764.24 
2769.05 
2773.89 
2778.75 
2783.64 
2788.55 
2793.49 
2798.46 
2803.45 
2808.46 
2813.5 
2818.56 
2823.65 
2828.76 
2833.89 
2839.05 
2844.22 
2849.42 
2854.65 
2859.89 
2865.15 
2870.44 
2875.74 
2881.07 
2886.42 
2891.78 
2897.16 
2902.57 
2907.99 
2913.43 
2918.89 
2924.36 
2929.86 
2935.36 
2940.89 
2946.43 
2951.99 
2957.56 
2963.15 
2968.75 
2974.37 
2980 
2985.65 
2991.31 
2996.98 
3002.66 
3008.35 
3014.06 
3019.78 
3025.51 
3031.25 
3037 
3042.76 
3048.53 
3054.3 
3060.09 
3065.88 
3071.69 
3077.49 
3083.31 
3089.13 
3094.96 
3100.8 
3106.64 
3112.48 
3118.33 
3124.18 
3130.04 
3135.9 
3141.76 
3147.63 
3153.49 
3159.36 
3165.23 
3171.1 
3176.97 
3182.83 
3188.7 
3194.57 
3200.43 
3206.29 
3212.15 
3218.01 
3223.86 
3229.71 
3235.55 
3241.39 
3247.22 
3253.05 
3258.87 
3264.68 
3270.49 
3276.29 
3282.07 
3287.85 
3293.63 
3299.39 
3305.14 
3310.87 
3316.6 
3322.32 
3328.02 
3333.71 
3339.38 
3345.05 
3350.69 
3356.32 
3361.94 
3367.54 
3373.12 
3378.69 
3384.24 
3389.77 
3395.28 
3400.77 
3406.24 
3411.69 
3417.12 
3422.53 
3427.91 
3433.27 
3438.61 
3443.93 
3449.22 
3454.49 
