# vtk DataFile Version 3.0
sol
ASCII
DATASET STRUCTURED_POINTS
DIMENSIONS 1 250 1
ORIGIN 0 0 0
SPACING 0.05 4e-05 1
POINT_DATA 250
SCALARS sol float
LOOKUP_TABLE default
1629.7 
1629.77 
1629.9 
1630.11 
1630.38 
1630.71 
1631.12 
1631.59 
1632.13 
1632.74 
1633.41 
1634.15 
1634.96 
1635.84 
1636.79 
1637.8 
1638.88 
1640.02 
1641.24 
1642.52 
1643.87 
1645.28 
1646.77 
1648.32 
1649.94 
1651.62 
1653.38 
1655.2 
1657.08 
1659.04 
1661.06 
1663.15 
1665.3 
1667.53 
1669.82 
1672.17 
1674.6 
1677.09 
1679.65 
1682.27 
1684.96 
1687.72 
1690.55 
1693.44 
1696.4 
1699.42 
1702.52 
1705.68 
1708.9 
1712.19 
1715.55 
1718.98 
1722.47 
1726.03 
1729.66 
1733.35 
1737.1 
1740.93 
1744.82 
1748.78 
1752.8 
1756.89 
1761.04 
1765.26 
1769.55 
1773.9 
1778.32 
1782.8 
1787.35 
1791.97 
1796.65 
1801.39 
1806.2 
1811.08 
1816.02 
1821.03 
1826.1 
1831.24 
1836.44 
1841.71 
1847.04 
1852.44 
1857.9 
1863.43 
1869.02 
1874.67 
1880.39 
1886.18 
1892.03 
1897.94 
1903.92 
1909.96 
1916.06 
1922.23 
1928.46 
1934.75 
1941.11 
1947.54 
1954.02 
1960.57 
1967.18 
1973.85 
1980.59 
1987.39 
1994.25 
2001.18 
2008.17 
2015.22 
2022.33 
2029.5 
2036.74 
2044.03 
2051.39 
2058.81 
2066.29 
2073.84 
2081.44 
2089.1 
2096.83 
2104.62 
2112.46 
2120.37 
2128.34 
2136.36 
2144.45 
2152.6 
2160.8 
2169.07 
2177.39 
2185.78 
2194.22 
2202.72 
2211.28 
2219.9 
2228.58 
2237.31 
2246.1 
2254.95 
2263.86 
2272.83 
2281.85 
2290.93 
2300.06 
2309.25 
2318.5 
2327.81 
2337.17 
2346.58 
2356.05 
2365.58 
2375.16 
2384.8 
2394.49 
2404.23 
2414.03 
2423.88 
2433.79 
2443.75 
2453.76 
2463.83 
2473.95 
2484.12 
2494.34 
2504.61 
2514.94 
2525.32 
2535.74 
2546.22 
2556.75 
2567.33 
2577.96 
2588.64 
2599.37 
2610.15 
2620.98 
2631.85 
2642.77 
2653.75 
2664.76 
2675.83 
2686.94 
2698.1 
2709.31 
2720.56 
2731.86 
2743.2 
2754.59 
2766.02 
2777.5 
2789.02 
2800.59 
2812.19 
2823.84 
2835.54 
2847.27 
2859.05 
2870.87 
2882.73 
2894.63 
2906.57 
2918.55 
2930.58 
2942.64 
2954.73 
2966.87 
2979.05 
2991.26 
3003.51 
3015.8 
3028.12 
3040.48 
3052.88 
3065.31 
3077.77 
3090.27 
3102.8 
3115.37 
3127.97 
3140.6 
3153.27 
3165.96 
3178.69 
3191.44 
3204.23 
3217.05 
3229.9 
3242.77 
3255.67 
3268.61 
3281.56 
3294.55 
3307.56 
3320.6 
3333.66 
3346.75 
3359.86 
3373 
3386.16 
3399.34 
3412.54 
3425.77 
3439.01 
3452.28 
3465.57 
3478.87 
3492.2 
3505.54 
3518.91 
3532.29 
3545.68 
