# vtk DataFile Version 3.0
sol
ASCII
DATASET STRUCTURED_POINTS
DIMENSIONS 1 250 1
ORIGIN 0 0 0
SPACING 0.05 4e-05 1
POINT_DATA 250
SCALARS sol float
LOOKUP_TABLE default
2296.98 
2297.03 
2297.13 
2297.28 
2297.48 
2297.73 
2298.04 
2298.39 
2298.79 
2299.24 
2299.74 
2300.3 
2300.9 
2301.55 
2302.25 
2303.01 
2303.81 
2304.66 
2305.56 
2306.52 
2307.52 
2308.57 
2309.67 
2310.82 
2312.02 
2313.27 
2314.58 
2315.93 
2317.32 
2318.77 
2320.27 
2321.82 
2323.42 
2325.06 
2326.76 
2328.5 
2330.29 
2332.14 
2334.03 
2335.97 
2337.95 
2339.99 
2342.08 
2344.21 
2346.39 
2348.62 
2350.9 
2353.23 
2355.6 
2358.02 
2360.49 
2363.01 
2365.58 
2368.19 
2370.85 
2373.56 
2376.31 
2379.11 
2381.96 
2384.86 
2387.8 
2390.78 
2393.82 
2396.9 
2400.03 
2403.2 
2406.42 
2409.68 
2412.99 
2416.35 
2419.75 
2423.2 
2426.69 
2430.22 
2433.8 
2437.43 
2441.1 
2444.81 
2448.57 
2452.37 
2456.22 
2460.11 
2464.04 
2468.02 
2472.03 
2476.1 
2480.2 
2484.35 
2488.54 
2492.77 
2497.04 
2501.36 
2505.72 
2510.12 
2514.56 
2519.04 
2523.56 
2528.12 
2532.73 
2537.37 
2542.05 
2546.78 
2551.54 
2556.34 
2561.18 
2566.07 
2570.98 
2575.94 
2580.94 
2585.97 
2591.05 
2596.16 
2601.3 
2606.49 
2611.71 
2616.97 
2622.26 
2627.59 
2632.96 
2638.36 
2643.8 
2649.27 
2654.78 
2660.32 
2665.9 
2671.51 
2677.15 
2682.83 
2688.55 
2694.29 
2700.07 
2705.88 
2711.72 
2717.6 
2723.5 
2729.44 
2735.41 
2741.41 
2747.44 
2753.5 
2759.59 
2765.71 
2771.86 
2778.03 
2784.24 
2790.48 
2796.74 
2803.03 
2809.35 
2815.7 
2822.07 
2828.47 
2834.89 
2841.34 
2847.82 
2854.32 
2860.85 
2867.4 
2873.97 
2880.57 
2887.19 
2893.84 
2900.51 
2907.2 
2913.91 
2920.64 
2927.4 
2934.18 
2940.97 
2947.79 
2954.63 
2961.48 
2968.36 
2975.25 
2982.17 
2989.1 
2996.05 
3003.01 
3009.99 
3016.99 
3024.01 
3031.04 
3038.08 
3045.14 
3052.22 
3059.31 
3066.41 
3073.53 
3080.65 
3087.8 
3094.95 
3102.11 
3109.29 
3116.47 
3123.67 
3130.88 
3138.09 
3145.32 
3152.55 
3159.79 
3167.04 
3174.29 
3181.56 
3188.82 
3196.1 
3203.38 
3210.66 
3217.95 
3225.24 
3232.54 
3239.84 
3247.14 
3254.44 
3261.75 
3269.06 
3276.36 
3283.67 
3290.98 
3298.28 
3305.59 
3312.89 
3320.19 
3327.49 
3334.78 
3342.07 
3349.36 
3356.64 
3363.92 
3371.19 
3378.45 
3385.71 
3392.96 
3400.2 
3407.43 
3414.65 
3421.87 
3429.07 
3436.26 
3443.45 
3450.62 
3457.77 
3464.92 
3472.05 
3479.17 
3486.27 
3493.36 
3500.43 
3507.49 
3514.53 
3521.55 
