# vtk DataFile Version 3.0
sol
ASCII
DATASET STRUCTURED_POINTS
DIMENSIONS 1 250 1
ORIGIN 0 0 0
SPACING 0.05 4e-05 1
POINT_DATA 250
SCALARS sol float
LOOKUP_TABLE default
2165.32 
2165.37 
2165.48 
2165.65 
2165.87 
2166.14 
2166.47 
2166.86 
2167.3 
2167.8 
2168.35 
2168.96 
2169.62 
2170.33 
2171.1 
2171.93 
2172.81 
2173.75 
2174.74 
2175.78 
2176.89 
2178.04 
2179.25 
2180.52 
2181.83 
2183.21 
2184.64 
2186.12 
2187.66 
2189.25 
2190.89 
2192.6 
2194.35 
2196.16 
2198.02 
2199.94 
2201.91 
2203.93 
2206.01 
2208.14 
2210.33 
2212.57 
2214.86 
2217.21 
2219.61 
2222.06 
2224.57 
2227.13 
2229.74 
2232.41 
2235.12 
2237.89 
2240.72 
2243.59 
2246.52 
2249.5 
2252.54 
2255.62 
2258.76 
2261.95 
2265.19 
2268.48 
2271.82 
2275.22 
2278.67 
2282.16 
2285.71 
2289.31 
2292.96 
2296.67 
2300.42 
2304.22 
2308.07 
2311.97 
2315.93 
2319.93 
2323.98 
2328.08 
2332.23 
2336.43 
2340.68 
2344.98 
2349.33 
2353.72 
2358.17 
2362.66 
2367.2 
2371.79 
2376.42 
2381.11 
2385.84 
2390.62 
2395.44 
2400.32 
2405.23 
2410.2 
2415.21 
2420.27 
2425.37 
2430.52 
2435.72 
2440.96 
2446.24 
2451.57 
2456.95 
2462.37 
2467.83 
2473.34 
2478.89 
2484.49 
2490.13 
2495.81 
2501.54 
2507.31 
2513.12 
2518.97 
2524.86 
2530.8 
2536.78 
2542.8 
2548.86 
2554.96 
2561.11 
2567.29 
2573.51 
2579.78 
2586.08 
2592.42 
2598.8 
2605.22 
2611.68 
2618.18 
2624.72 
2631.29 
2637.9 
2644.55 
2651.23 
2657.95 
2664.71 
2671.51 
2678.34 
2685.2 
2692.1 
2699.04 
2706.01 
2713.01 
2720.05 
2727.12 
2734.23 
2741.37 
2748.54 
2755.75 
2762.98 
2770.25 
2777.55 
2784.88 
2792.24 
2799.64 
2807.06 
2814.51 
2822 
2829.51 
2837.05 
2844.62 
2852.21 
2859.84 
2867.49 
2875.17 
2882.88 
2890.61 
2898.37 
2906.16 
2913.97 
2921.8 
2929.66 
2937.54 
2945.45 
2953.38 
2961.34 
2969.31 
2977.31 
2985.34 
2993.38 
3001.44 
3009.53 
3017.63 
3025.76 
3033.9 
3042.07 
3050.25 
3058.45 
3066.67 
3074.9 
3083.16 
3091.43 
3099.71 
3108.01 
3116.33 
3124.66 
3133.01 
3141.37 
3149.74 
3158.13 
3166.53 
3174.94 
3183.37 
3191.8 
3200.25 
3208.71 
3217.17 
3225.65 
3234.13 
3242.63 
3251.13 
3259.64 
3268.16 
3276.68 
3285.21 
3293.74 
3302.28 
3310.83 
3319.38 
3327.93 
3336.49 
3345.05 
3353.61 
3362.17 
3370.73 
3379.3 
3387.86 
3396.43 
3404.99 
3413.55 
3422.11 
3430.67 
3439.23 
3447.78 
3456.33 
3464.87 
3473.41 
3481.94 
3490.46 
3498.98 
3507.49 
3516 
3524.49 
3532.98 
3541.45 
3549.92 
3558.37 
