# vtk DataFile Version 3.0
sol
ASCII
DATASET STRUCTURED_POINTS
DIMENSIONS 1 250 1
ORIGIN 0 0 0
SPACING 0.05 4e-05 1
POINT_DATA 250
SCALARS sol float
LOOKUP_TABLE default
294.948 
294.949 
294.953 
294.958 
294.964 
294.973 
294.982 
294.994 
295.007 
295.023 
295.039 
295.058 
295.078 
295.1 
295.123 
295.149 
295.176 
295.205 
295.236 
295.269 
295.303 
295.34 
295.378 
295.418 
295.46 
295.505 
295.551 
295.599 
295.65 
295.702 
295.757 
295.813 
295.872 
295.933 
295.997 
296.063 
296.131 
296.201 
296.274 
296.35 
296.428 
296.509 
296.592 
296.678 
296.766 
296.858 
296.952 
297.05 
297.15 
297.253 
297.359 
297.469 
297.581 
297.697 
297.817 
297.939 
298.066 
298.195 
298.329 
298.466 
298.607 
298.752 
298.9 
299.053 
299.21 
299.371 
299.537 
299.707 
299.881 
300.061 
300.244 
300.433 
300.626 
300.825 
301.029 
301.238 
301.452 
301.672 
301.897 
302.129 
302.366 
302.609 
302.858 
303.113 
303.375 
303.644 
303.919 
304.201 
304.49 
304.786 
305.089 
305.4 
305.718 
306.045 
306.379 
306.721 
307.072 
307.431 
307.799 
308.176 
308.562 
308.957 
309.362 
309.776 
310.201 
310.635 
311.08 
311.536 
312.002 
312.48 
312.968 
313.469 
313.981 
314.505 
315.042 
315.591 
316.154 
316.729 
317.318 
317.921 
318.537 
319.169 
319.815 
320.476 
321.152 
321.844 
322.553 
323.277 
324.019 
324.777 
325.554 
326.348 
327.16 
327.992 
328.842 
329.712 
330.602 
331.513 
332.444 
333.397 
334.372 
335.369 
336.389 
337.432 
338.499 
339.591 
340.708 
341.85 
343.018 
344.213 
345.435 
346.685 
347.963 
349.271 
350.608 
351.976 
353.374 
354.805 
356.268 
357.764 
359.294 
360.859 
362.459 
364.095 
365.768 
367.479 
369.229 
371.018 
372.847 
374.717 
376.63 
378.585 
380.584 
382.628 
384.717 
386.853 
389.036 
391.268 
393.549 
395.881 
398.264 
400.699 
403.188 
405.731 
408.329 
410.983 
413.695 
416.464 
419.293 
422.181 
425.131 
428.142 
431.215 
434.352 
437.552 
440.817 
444.147 
447.542 
451.003 
454.53 
458.124 
461.783 
465.508 
469.3 
473.156 
477.077 
481.061 
485.108 
489.216 
493.383 
497.608 
501.889 
506.223 
510.608 
515.041 
519.519 
524.038 
528.597 
533.191 
537.816 
542.471 
547.151 
551.853 
556.575 
561.314 
566.068 
570.836 
575.616 
580.408 
585.212 
590.03 
594.861 
599.709 
604.575 
609.463 
614.375 
619.317 
624.29 
629.301 
634.352 
639.448 
644.593 
649.791 
655.045 
660.358 
665.734 
671.175 
676.683 
682.26 
687.908 
