# vtk DataFile Version 3.0
sol
ASCII
DATASET STRUCTURED_POINTS
DIMENSIONS 1 250 1
ORIGIN 0 0 0
SPACING 0.05 4e-05 1
POINT_DATA 250
SCALARS sol float
LOOKUP_TABLE default
787.038 
787.086 
787.182 
787.327 
787.52 
787.76 
788.049 
788.386 
788.772 
789.205 
789.687 
790.217 
790.796 
791.423 
792.098 
792.822 
793.594 
794.414 
795.283 
796.201 
797.167 
798.182 
799.246 
800.358 
801.52 
802.73 
803.989 
805.298 
806.655 
808.062 
809.518 
811.023 
812.578 
814.182 
815.835 
817.539 
819.292 
821.095 
822.948 
824.851 
826.804 
828.807 
830.861 
832.965 
835.12 
837.325 
839.581 
841.889 
844.247 
846.656 
849.117 
851.629 
854.192 
856.807 
859.474 
862.193 
864.964 
867.788 
870.663 
873.592 
876.572 
879.606 
882.693 
885.832 
889.026 
892.272 
895.572 
898.926 
902.334 
905.796 
909.313 
912.883 
916.509 
920.189 
923.925 
927.715 
931.561 
935.463 
939.421 
943.434 
947.504 
951.63 
955.813 
960.052 
964.349 
968.703 
973.114 
977.583 
982.11 
986.695 
991.338 
996.04 
1000.8 
1005.62 
1010.5 
1015.44 
1020.44 
1025.5 
1030.61 
1035.79 
1041.03 
1046.33 
1051.7 
1057.12 
1062.61 
1068.15 
1073.76 
1079.43 
1085.17 
1090.97 
1096.83 
1102.75 
1108.74 
1114.8 
1120.92 
1127.1 
1133.35 
1139.66 
1146.04 
1152.48 
1159 
1165.57 
1172.22 
1178.93 
1185.71 
1192.56 
1199.47 
1206.46 
1213.51 
1220.63 
1227.82 
1235.08 
1242.41 
1249.81 
1257.29 
1264.83 
1272.44 
1280.13 
1287.89 
1295.72 
1303.63 
1311.6 
1319.65 
1327.78 
1335.98 
1344.25 
1352.6 
1361.02 
1369.52 
1378.1 
1386.75 
1395.48 
1404.28 
1413.17 
1422.13 
1431.17 
1440.29 
1449.49 
1458.76 
1468.12 
1477.56 
1487.08 
1496.68 
1506.36 
1516.12 
1525.97 
1535.9 
1545.91 
1556 
1566.18 
1576.45 
1586.8 
1597.23 
1607.75 
1618.36 
1629.05 
1639.83 
1650.7 
1661.66 
1672.7 
1683.83 
1695.06 
1706.37 
1717.77 
1729.27 
1740.85 
1752.53 
1764.3 
1776.16 
1788.11 
1800.16 
1812.3 
1824.54 
1836.87 
1849.3 
1861.82 
1874.44 
1887.16 
1899.98 
1912.89 
1925.9 
1939.01 
1952.22 
1965.53 
1978.94 
1992.45 
2006.07 
2019.78 
2033.6 
2047.52 
2061.55 
2075.67 
2089.91 
2104.25 
2118.69 
2133.24 
2147.9 
2162.67 
2177.54 
2192.53 
2207.62 
2222.82 
2238.13 
2253.56 
2269.09 
2284.74 
2300.5 
2316.37 
2332.35 
2348.45 
2364.67 
2381 
2397.45 
2414.01 
2430.69 
2447.49 
2464.41 
2481.44 
2498.6 
2515.87 
2533.27 
2550.79 
2568.43 
2586.19 
2604.08 
2622.09 
2640.22 
2658.49 
2676.87 
2695.38 
