# vtk DataFile Version 3.0
sol
ASCII
DATASET STRUCTURED_POINTS
DIMENSIONS 1 250 1
ORIGIN 0 0 0
SPACING 0.05 4e-05 1
POINT_DATA 250
SCALARS sol float
LOOKUP_TABLE default
311.967 
311.977 
311.997 
312.027 
312.068 
312.118 
312.179 
312.249 
312.33 
312.422 
312.523 
312.635 
312.757 
312.89 
313.033 
313.186 
313.35 
313.525 
313.711 
313.907 
314.115 
314.333 
314.562 
314.803 
315.055 
315.318 
315.592 
315.879 
316.177 
316.487 
316.809 
317.143 
317.489 
317.848 
318.219 
318.603 
318.999 
319.409 
319.832 
320.269 
320.718 
321.182 
321.66 
322.151 
322.657 
323.178 
323.713 
324.263 
324.828 
325.409 
326.006 
326.618 
327.246 
327.891 
328.552 
329.23 
329.926 
330.639 
331.369 
332.118 
332.884 
333.67 
334.474 
335.297 
336.14 
337.003 
337.886 
338.789 
339.713 
340.659 
341.626 
342.614 
343.626 
344.659 
345.716 
346.796 
347.9 
349.028 
350.181 
351.359 
352.562 
353.792 
355.047 
356.329 
357.639 
358.976 
360.341 
361.735 
363.158 
364.61 
366.093 
367.606 
369.15 
370.725 
372.333 
373.973 
375.646 
377.352 
379.093 
380.868 
382.678 
384.524 
386.406 
388.325 
390.281 
392.275 
394.307 
396.377 
398.487 
400.637 
402.827 
405.058 
407.33 
409.644 
411.999 
414.398 
416.839 
419.324 
421.852 
424.424 
427.041 
429.702 
432.407 
435.158 
437.953 
440.793 
443.678 
446.608 
449.583 
452.602 
455.665 
458.772 
461.922 
465.114 
468.348 
471.623 
474.938 
478.292 
481.683 
485.111 
488.574 
492.071 
495.599 
499.158 
502.745 
506.359 
509.998 
513.659 
517.342 
521.044 
524.764 
528.499 
532.249 
536.012 
539.786 
543.572 
547.368 
551.173 
554.987 
558.811 
562.646 
566.49 
570.346 
574.215 
578.099 
581.998 
585.915 
589.852 
593.811 
597.795 
601.806 
605.845 
609.916 
614.021 
618.161 
622.339 
626.557 
630.816 
635.117 
639.463 
643.855 
648.293 
652.779 
657.312 
661.895 
666.528 
671.211 
675.946 
680.731 
685.569 
690.459 
695.402 
700.399 
705.45 
710.555 
715.715 
720.93 
726.201 
731.529 
736.914 
742.355 
747.855 
753.413 
759.03 
764.706 
770.442 
776.238 
782.095 
788.014 
793.995 
800.037 
806.143 
812.313 
818.546 
824.844 
831.207 
837.635 
844.13 
850.691 
857.32 
864.016 
870.781 
877.615 
884.518 
891.491 
898.535 
905.649 
912.836 
920.095 
927.426 
934.832 
942.311 
949.864 
957.493 
965.198 
972.979 
980.837 
988.773 
996.787 
1004.88 
1013.05 
1021.3 
1029.64 
1038.05 
1046.55 
1055.12 
1063.79 
1072.53 
1081.36 
1090.27 
