# vtk DataFile Version 3.0
sol
ASCII
DATASET STRUCTURED_POINTS
DIMENSIONS 1 250 1
ORIGIN 0 0 0
SPACING 0.05 4e-05 1
POINT_DATA 250
SCALARS sol float
LOOKUP_TABLE default
293.116 
293.117 
293.117 
293.117 
293.118 
293.119 
293.12 
293.121 
293.122 
293.124 
293.125 
293.127 
293.129 
293.131 
293.133 
293.136 
293.138 
293.141 
293.144 
293.147 
293.151 
293.154 
293.158 
293.162 
293.167 
293.171 
293.176 
293.181 
293.186 
293.192 
293.197 
293.203 
293.21 
293.216 
293.223 
293.23 
293.238 
293.246 
293.254 
293.262 
293.271 
293.281 
293.29 
293.3 
293.311 
293.322 
293.333 
293.345 
293.357 
293.37 
293.383 
293.397 
293.411 
293.426 
293.441 
293.457 
293.474 
293.491 
293.509 
293.527 
293.547 
293.567 
293.587 
293.609 
293.631 
293.654 
293.678 
293.703 
293.729 
293.755 
293.783 
293.811 
293.841 
293.872 
293.904 
293.937 
293.971 
294.006 
294.042 
294.08 
294.119 
294.16 
294.202 
294.245 
294.29 
294.337 
294.385 
294.434 
294.486 
294.539 
294.594 
294.65 
294.709 
294.77 
294.832 
294.897 
294.964 
295.033 
295.105 
295.179 
295.255 
295.334 
295.415 
295.499 
295.586 
295.675 
295.768 
295.863 
295.961 
296.063 
296.168 
296.276 
296.388 
296.503 
296.621 
296.744 
296.87 
297 
297.135 
297.273 
297.416 
297.563 
297.715 
297.871 
298.032 
298.198 
298.369 
298.545 
298.726 
298.913 
299.106 
299.304 
299.508 
299.718 
299.935 
300.157 
300.387 
300.623 
300.866 
301.116 
301.373 
301.637 
301.909 
302.189 
302.477 
302.774 
303.078 
303.391 
303.713 
304.044 
304.385 
304.735 
305.094 
305.464 
305.843 
306.234 
306.635 
307.046 
307.469 
307.904 
308.35 
308.809 
309.279 
309.763 
310.259 
310.768 
311.291 
311.828 
312.379 
312.944 
313.524 
314.119 
314.73 
315.357 
315.999 
316.658 
317.334 
318.028 
318.738 
319.467 
320.215 
320.981 
321.766 
322.571 
323.396 
324.241 
325.107 
325.995 
326.904 
327.836 
328.79 
329.768 
330.769 
331.794 
332.844 
333.919 
335.019 
336.146 
337.299 
338.48 
339.688 
340.925 
342.19 
343.485 
344.81 
346.166 
347.552 
348.97 
350.421 
351.905 
353.422 
354.973 
356.559 
358.181 
359.839 
361.533 
363.265 
365.035 
366.844 
368.692 
370.581 
372.51 
374.481 
376.495 
378.551 
380.651 
382.795 
384.985 
387.22 
389.502 
391.831 
394.208 
396.634 
399.109 
401.634 
404.21 
406.837 
409.517 
412.249 
415.034 
417.874 
420.767 
423.716 
426.72 
429.78 
432.896 
436.069 
439.298 
442.584 
445.927 
