# vtk DataFile Version 3.0
sol
ASCII
DATASET STRUCTURED_POINTS
DIMENSIONS 1 250 1
ORIGIN 0 0 0
SPACING 0.05 4e-05 1
POINT_DATA 250
SCALARS sol float
LOOKUP_TABLE default
2161.87 
2161.92 
2162.04 
2162.2 
2162.42 
2162.7 
2163.03 
2163.42 
2163.86 
2164.36 
2164.91 
2165.52 
2166.18 
2166.9 
2167.67 
2168.5 
2169.38 
2170.32 
2171.31 
2172.36 
2173.46 
2174.62 
2175.83 
2177.1 
2178.42 
2179.8 
2181.23 
2182.72 
2184.26 
2185.85 
2187.5 
2189.21 
2190.97 
2192.78 
2194.64 
2196.57 
2198.54 
2200.57 
2202.65 
2204.79 
2206.98 
2209.22 
2211.52 
2213.87 
2216.28 
2218.74 
2221.25 
2223.82 
2226.43 
2229.1 
2231.83 
2234.61 
2237.44 
2240.32 
2243.25 
2246.24 
2249.28 
2252.37 
2255.52 
2258.71 
2261.96 
2265.26 
2268.61 
2272.01 
2275.47 
2278.97 
2282.53 
2286.14 
2289.8 
2293.51 
2297.27 
2301.08 
2304.94 
2308.85 
2312.81 
2316.82 
2320.89 
2325 
2329.16 
2333.37 
2337.63 
2341.93 
2346.29 
2350.7 
2355.15 
2359.65 
2364.2 
2368.8 
2373.45 
2378.14 
2382.89 
2387.68 
2392.51 
2397.4 
2402.33 
2407.3 
2412.33 
2417.4 
2422.51 
2427.68 
2432.88 
2438.14 
2443.44 
2448.78 
2454.17 
2459.6 
2465.08 
2470.6 
2476.16 
2481.77 
2487.43 
2493.12 
2498.86 
2504.65 
2510.47 
2516.34 
2522.25 
2528.2 
2534.19 
2540.23 
2546.31 
2552.42 
2558.58 
2564.78 
2571.02 
2577.3 
2583.62 
2589.98 
2596.37 
2602.81 
2609.29 
2615.8 
2622.35 
2628.94 
2635.57 
2642.24 
2648.94 
2655.68 
2662.45 
2669.27 
2676.11 
2683 
2689.92 
2696.87 
2703.86 
2710.88 
2717.94 
2725.03 
2732.16 
2739.32 
2746.51 
2753.73 
2760.99 
2768.28 
2775.6 
2782.95 
2790.33 
2797.75 
2805.19 
2812.66 
2820.17 
2827.7 
2835.26 
2842.85 
2850.47 
2858.12 
2865.8 
2873.5 
2881.23 
2888.98 
2896.76 
2904.57 
2912.4 
2920.26 
2928.15 
2936.05 
2943.99 
2951.94 
2959.92 
2967.92 
2975.94 
2983.99 
2992.06 
3000.15 
3008.26 
3016.39 
3024.54 
3032.71 
3040.9 
3049.1 
3057.33 
3065.57 
3073.84 
3082.12 
3090.41 
3098.73 
3107.05 
3115.4 
3123.76 
3132.13 
3140.52 
3148.92 
3157.34 
3165.77 
3174.21 
3182.66 
3191.12 
3199.6 
3208.08 
3216.58 
3225.08 
3233.6 
3242.12 
3250.65 
3259.19 
3267.74 
3276.29 
3284.85 
3293.42 
3301.99 
3310.57 
3319.15 
3327.73 
3336.32 
3344.91 
3353.5 
3362.1 
3370.69 
3379.29 
3387.89 
3396.48 
3405.08 
3413.68 
3422.27 
3430.86 
3439.45 
3448.03 
3456.61 
3465.19 
3473.76 
3482.33 
3490.89 
3499.44 
3507.99 
3516.52 
3525.06 
3533.58 
3542.09 
3550.59 
3559.08 
