# vtk DataFile Version 3.0
sol
ASCII
DATASET STRUCTURED_POINTS
DIMENSIONS 1 250 1
ORIGIN 0 0 0
SPACING 0.05 4e-05 1
POINT_DATA 250
SCALARS sol float
LOOKUP_TABLE default
418.354 
418.396 
418.48 
418.606 
418.774 
418.984 
419.236 
419.53 
419.866 
420.244 
420.665 
421.127 
421.632 
422.179 
422.769 
423.4 
424.074 
424.791 
425.55 
426.352 
427.196 
428.082 
429.012 
429.983 
430.998 
432.055 
433.155 
434.298 
435.483 
436.711 
437.981 
439.294 
440.65 
442.047 
443.487 
444.97 
446.494 
448.06 
449.667 
451.316 
453.007 
454.737 
456.509 
458.32 
460.172 
462.062 
463.992 
465.96 
467.965 
470.008 
472.087 
474.202 
476.352 
478.536 
480.754 
483.005 
485.287 
487.6 
489.943 
492.314 
494.713 
497.14 
499.591 
502.068 
504.568 
507.091 
509.636 
512.201 
514.786 
517.39 
520.012 
522.651 
525.307 
527.98 
530.668 
533.371 
536.09 
538.823 
541.572 
544.335 
547.115 
549.91 
552.721 
555.549 
558.395 
561.259 
564.143 
567.047 
569.972 
572.92 
575.892 
578.888 
581.911 
584.961 
588.04 
591.148 
594.287 
597.457 
600.661 
603.898 
607.17 
610.478 
613.822 
617.202 
620.621 
624.077 
627.572 
631.107 
634.68 
638.294 
641.948 
645.642 
649.378 
653.154 
656.972 
660.832 
664.734 
668.678 
672.665 
676.695 
680.768 
684.885 
689.045 
693.25 
697.499 
701.793 
706.131 
710.515 
714.945 
719.421 
723.942 
728.511 
733.126 
737.789 
742.499 
747.257 
752.063 
756.918 
761.821 
766.774 
771.776 
776.829 
781.931 
787.084 
792.289 
797.544 
802.851 
808.21 
813.622 
819.086 
824.604 
830.175 
835.8 
841.479 
847.212 
853.001 
858.846 
864.746 
870.702 
876.715 
882.785 
888.912 
895.097 
901.34 
907.642 
914.003 
920.423 
926.903 
933.443 
940.044 
946.707 
953.43 
960.216 
967.064 
973.975 
980.949 
987.987 
995.089 
1002.26 
1009.49 
1016.78 
1024.15 
1031.58 
1039.07 
1046.64 
1054.27 
1061.97 
1069.74 
1077.57 
1085.48 
1093.46 
1101.51 
1109.63 
1117.82 
1126.08 
1134.41 
1142.82 
1151.3 
1159.86 
1168.49 
1177.2 
1185.98 
1194.84 
1203.77 
1212.78 
1221.87 
1231.04 
1240.28 
1249.61 
1259.01 
1268.49 
1278.06 
1287.71 
1297.43 
1307.25 
1317.14 
1327.12 
1337.18 
1347.32 
1357.55 
1367.87 
1378.27 
1388.76 
1399.34 
1410.01 
1420.76 
1431.6 
1442.54 
1453.56 
1464.67 
1475.88 
1487.17 
1498.56 
1510.05 
1521.62 
1533.29 
1545.06 
1556.92 
1568.88 
1580.93 
1593.08 
1605.33 
1617.68 
1630.13 
1642.68 
1655.33 
1668.08 
1680.93 
1693.88 
1706.94 
