# vtk DataFile Version 3.0
sol
ASCII
DATASET STRUCTURED_POINTS
DIMENSIONS 1 250 1
ORIGIN 0 0 0
SPACING 0.05 4e-05 1
POINT_DATA 250
SCALARS sol float
LOOKUP_TABLE default
331.432 
331.449 
331.484 
331.536 
331.606 
331.694 
331.799 
331.922 
332.062 
332.22 
332.396 
332.59 
332.801 
333.031 
333.279 
333.544 
333.828 
334.13 
334.451 
334.79 
335.148 
335.524 
335.92 
336.334 
336.767 
337.22 
337.693 
338.184 
338.696 
339.228 
339.78 
340.352 
340.944 
341.557 
342.191 
342.847 
343.523 
344.221 
344.941 
345.683 
346.447 
347.234 
348.043 
348.876 
349.731 
350.61 
351.514 
352.441 
353.392 
354.368 
355.37 
356.396 
357.448 
358.527 
359.631 
360.762 
361.92 
363.106 
364.319 
365.56 
366.829 
368.127 
369.455 
370.811 
372.198 
373.615 
375.063 
376.542 
378.052 
379.594 
381.168 
382.775 
384.416 
386.089 
387.797 
389.539 
391.316 
393.127 
394.975 
396.858 
398.778 
400.734 
402.728 
404.759 
406.827 
408.935 
411.08 
413.265 
415.488 
417.751 
420.054 
422.397 
424.78 
427.203 
429.667 
432.172 
434.717 
437.302 
439.929 
442.596 
445.303 
448.051 
450.838 
453.665 
456.531 
459.437 
462.38 
465.36 
468.378 
471.431 
474.519 
477.642 
480.797 
483.984 
487.202 
490.449 
493.723 
497.024 
500.35 
503.7 
507.071 
510.462 
513.872 
517.3 
520.744 
524.202 
527.674 
531.158 
534.654 
538.161 
541.678 
545.205 
548.742 
552.289 
555.847 
559.415 
562.996 
566.59 
570.197 
573.821 
577.461 
581.121 
584.801 
588.503 
592.231 
595.984 
599.766 
603.578 
607.422 
611.3 
615.214 
619.164 
623.152 
627.18 
631.248 
635.358 
639.51 
643.706 
647.945 
652.229 
656.558 
660.933 
665.354 
669.822 
674.336 
678.898 
683.508 
688.166 
692.873 
697.629 
702.435 
707.291 
712.197 
717.153 
722.162 
727.221 
732.333 
737.498 
742.715 
747.986 
753.311 
758.69 
764.124 
769.613 
775.157 
780.758 
786.415 
792.13 
797.902 
803.732 
809.62 
815.567 
821.574 
827.641 
833.767 
839.955 
846.204 
852.515 
858.888 
865.324 
871.824 
878.387 
885.014 
891.706 
898.464 
905.287 
912.177 
919.134 
926.157 
933.249 
940.41 
947.639 
954.938 
962.306 
969.746 
977.256 
984.838 
992.492 
1000.22 
1008.02 
1015.89 
1023.84 
1031.87 
1039.96 
1048.14 
1056.39 
1064.72 
1073.13 
1081.61 
1090.17 
1098.82 
1107.54 
1116.35 
1125.23 
1134.2 
1143.25 
1152.38 
1161.6 
1170.9 
1180.28 
1189.75 
1199.31 
1208.96 
1218.69 
1228.51 
1238.41 
1248.41 
1258.5 
1268.67 
1278.94 
