# vtk DataFile Version 3.0
sol
ASCII
DATASET STRUCTURED_POINTS
DIMENSIONS 1 250 1
ORIGIN 0 0 0
SPACING 0.05 4e-05 1
POINT_DATA 250
SCALARS sol float
LOOKUP_TABLE default
325.864 
325.88 
325.911 
325.958 
326.02 
326.097 
326.191 
326.3 
326.424 
326.564 
326.721 
326.892 
327.08 
327.284 
327.504 
327.74 
327.992 
328.26 
328.545 
328.846 
329.164 
329.498 
329.849 
330.218 
330.603 
331.006 
331.425 
331.863 
332.318 
332.791 
333.282 
333.791 
334.318 
334.864 
335.429 
336.012 
336.615 
337.237 
337.878 
338.539 
339.22 
339.922 
340.644 
341.386 
342.15 
342.935 
343.741 
344.569 
345.419 
346.291 
347.186 
348.104 
349.045 
350.01 
350.998 
352.011 
353.048 
354.11 
355.197 
356.309 
357.447 
358.612 
359.803 
361.021 
362.267 
363.54 
364.841 
366.171 
367.53 
368.918 
370.336 
371.784 
373.262 
374.771 
376.312 
377.885 
379.49 
381.127 
382.798 
384.502 
386.24 
388.013 
389.82 
391.663 
393.542 
395.456 
397.408 
399.396 
401.422 
403.485 
405.587 
407.728 
409.907 
412.126 
414.384 
416.683 
419.022 
421.401 
423.821 
426.282 
428.785 
431.328 
433.913 
436.54 
439.208 
441.917 
444.668 
447.46 
450.292 
453.166 
456.079 
459.032 
462.025 
465.056 
468.124 
471.23 
474.371 
477.548 
480.759 
484.002 
487.277 
490.582 
493.915 
497.276 
500.662 
504.073 
507.506 
510.96 
514.433 
517.924 
521.431 
524.953 
528.489 
532.037 
535.597 
539.168 
542.749 
546.34 
549.941 
553.551 
557.172 
560.804 
564.448 
568.104 
571.775 
575.461 
579.164 
582.887 
586.63 
590.396 
594.187 
598.005 
601.851 
605.729 
609.639 
613.584 
617.565 
621.583 
625.641 
629.739 
633.879 
638.061 
642.287 
646.556 
650.871 
655.232 
659.639 
664.092 
668.593 
673.141 
677.738 
682.383 
687.078 
691.821 
696.615 
701.459 
706.354 
711.3 
716.297 
721.347 
726.449 
731.604 
736.813 
742.075 
747.392 
752.763 
758.19 
763.673 
769.211 
774.806 
780.459 
786.168 
791.936 
797.762 
803.648 
809.593 
815.597 
821.662 
827.789 
833.976 
840.225 
846.537 
852.912 
859.35 
865.852 
872.419 
879.05 
885.747 
892.51 
899.34 
906.236 
913.201 
920.233 
927.334 
934.503 
941.743 
949.053 
956.434 
963.886 
971.41 
979.006 
986.675 
994.418 
1002.24 
1010.13 
1018.09 
1026.14 
1034.26 
1042.45 
1050.72 
1059.08 
1067.51 
1076.02 
1084.61 
1093.28 
1102.03 
1110.86 
1119.77 
1128.77 
1137.85 
1147.02 
1156.27 
1165.6 
1175.02 
1184.53 
1194.13 
1203.81 
1213.58 
1223.44 
1233.39 
