# vtk DataFile Version 3.0
sol
ASCII
DATASET STRUCTURED_POINTS
DIMENSIONS 125 250 1
ORIGIN 0 0 0
SPACING 0.0004 4e-05 1
POINT_DATA 31250
SCALARS sol float
LOOKUP_TABLE default
1718.94 1718.94 1718.94 1718.94 1718.94 1718.94 1718.94 1718.94 1718.94 1718.94 1718.94 1718.94 1718.94 1718.94 1718.94 1718.94 1718.94 1718.94 1718.94 1718.94 1718.94 1718.94 1718.94 1718.94 1718.94 1718.94 1718.94 1718.94 1718.94 1718.94 1718.94 1718.94 1718.94 1718.94 1718.94 1718.94 1718.94 1718.94 1718.94 1718.94 1718.94 1718.94 1718.94 1718.94 1718.94 1718.94 1718.94 1718.94 1718.94 1718.94 1718.94 1718.94 1718.94 1718.94 1718.94 1718.94 1718.94 1718.94 1718.94 1718.94 1718.94 1718.94 1718.94 1718.94 1718.94 1718.94 1718.94 1718.94 1718.94 1718.94 1718.94 1718.94 1718.94 1718.94 1718.94 1718.94 1718.94 1718.94 1718.94 1718.94 1718.94 1718.94 1718.94 1718.94 1718.94 1718.94 1718.94 1718.94 1718.94 1718.94 1718.94 1718.94 1718.94 1718.94 1718.94 1718.94 1718.94 1718.94 1718.94 1718.94 1718.94 1718.94 1718.94 1718.94 1718.94 1718.94 1718.94 1718.94 1718.94 1718.94 1718.94 1718.94 1718.94 1718.94 1718.94 1718.94 1718.94 1718.94 1718.94 1718.94 1718.94 1718.94 1718.94 1718.94 1718.94 
1718.98 1718.98 1718.98 1718.98 1718.98 1718.98 1718.98 1718.98 1718.98 1718.98 1718.98 1718.98 1718.98 1718.98 1718.98 1718.98 1718.98 1718.98 1718.98 1718.98 1718.98 1718.98 1718.98 1718.98 1718.98 1718.98 1718.98 1718.98 1718.98 1718.98 1718.98 1718.98 1718.98 1718.98 1718.98 1718.98 1718.98 1718.98 1718.98 1718.98 1718.98 1718.98 1718.98 1718.98 1718.98 1718.98 1718.98 1718.98 1718.98 1718.98 1718.98 1718.98 1718.98 1718.98 1718.98 1718.98 1718.98 1718.98 1718.98 1718.98 1718.98 1718.98 1718.98 1718.98 1718.98 1718.98 1718.98 1718.98 1718.98 1718.98 1718.98 1718.98 1718.98 1718.98 1718.98 1718.98 1718.98 1718.98 1718.98 1718.98 1718.98 1718.98 1718.98 1718.98 1718.98 1718.98 1718.98 1718.98 1718.98 1718.98 1718.98 1718.98 1718.98 1718.98 1718.98 1718.98 1718.98 1718.98 1718.98 1718.98 1718.98 1718.98 1718.98 1718.98 1718.98 1718.98 1718.98 1718.98 1718.98 1718.98 1718.98 1718.98 1718.98 1718.98 1718.98 1718.98 1718.98 1718.98 1718.98 1718.98 1718.98 1718.98 1718.98 1718.98 1718.98 
1719.06 1719.06 1719.06 1719.06 1719.06 1719.06 1719.06 1719.06 1719.06 1719.06 1719.06 1719.06 1719.06 1719.06 1719.06 1719.06 1719.06 1719.06 1719.06 1719.06 1719.06 1719.06 1719.06 1719.06 1719.06 1719.06 1719.06 1719.06 1719.06 1719.06 1719.06 1719.06 1719.06 1719.06 1719.06 1719.06 1719.06 1719.06 1719.06 1719.06 1719.06 1719.06 1719.06 1719.06 1719.06 1719.06 1719.06 1719.06 1719.06 1719.06 1719.06 1719.06 1719.06 1719.06 1719.06 1719.06 1719.06 1719.06 1719.06 1719.06 1719.06 1719.06 1719.06 1719.06 1719.06 1719.06 1719.06 1719.06 1719.06 1719.06 1719.06 1719.06 1719.06 1719.06 1719.06 1719.06 1719.06 1719.06 1719.06 1719.06 1719.06 1719.06 1719.06 1719.06 1719.06 1719.06 1719.06 1719.06 1719.06 1719.06 1719.06 1719.06 1719.06 1719.06 1719.06 1719.06 1719.06 1719.06 1719.06 1719.06 1719.06 1719.06 1719.06 1719.06 1719.06 1719.06 1719.06 1719.06 1719.06 1719.06 1719.06 1719.06 1719.06 1719.06 1719.06 1719.06 1719.06 1719.06 1719.06 1719.06 1719.06 1719.06 1719.06 1719.06 1719.06 
1719.18 1719.18 1719.18 1719.18 1719.18 1719.18 1719.18 1719.18 1719.18 1719.18 1719.18 1719.18 1719.18 1719.18 1719.18 1719.18 1719.18 1719.18 1719.18 1719.18 1719.18 1719.18 1719.18 1719.18 1719.18 1719.18 1719.18 1719.18 1719.18 1719.18 1719.18 1719.18 1719.18 1719.18 1719.18 1719.18 1719.18 1719.18 1719.18 1719.18 1719.18 1719.18 1719.18 1719.18 1719.18 1719.18 1719.18 1719.18 1719.18 1719.18 1719.18 1719.18 1719.18 1719.18 1719.18 1719.18 1719.18 1719.18 1719.18 1719.18 1719.18 1719.18 1719.18 1719.18 1719.18 1719.18 1719.18 1719.18 1719.18 1719.18 1719.18 1719.18 1719.18 1719.18 1719.18 1719.18 1719.18 1719.18 1719.18 1719.18 1719.18 1719.18 1719.18 1719.18 1719.18 1719.18 1719.18 1719.18 1719.18 1719.18 1719.18 1719.18 1719.18 1719.18 1719.18 1719.18 1719.18 1719.18 1719.18 1719.18 1719.18 1719.18 1719.18 1719.18 1719.18 1719.18 1719.18 1719.18 1719.18 1719.18 1719.18 1719.18 1719.18 1719.18 1719.18 1719.18 1719.18 1719.18 1719.18 1719.18 1719.18 1719.18 1719.18 1719.18 1719.18 
1719.35 1719.35 1719.35 1719.35 1719.35 1719.35 1719.35 1719.35 1719.35 1719.35 1719.35 1719.35 1719.35 1719.35 1719.35 1719.35 1719.35 1719.35 1719.35 1719.35 1719.35 1719.35 1719.35 1719.35 1719.35 1719.35 1719.35 1719.35 1719.35 1719.35 1719.35 1719.35 1719.35 1719.35 1719.35 1719.35 1719.35 1719.35 1719.35 1719.35 1719.35 1719.35 1719.35 1719.35 1719.35 1719.35 1719.35 1719.35 1719.35 1719.35 1719.35 1719.35 1719.35 1719.35 1719.35 1719.35 1719.35 1719.35 1719.35 1719.35 1719.35 1719.35 1719.35 1719.35 1719.35 1719.35 1719.35 1719.35 1719.35 1719.35 1719.35 1719.35 1719.35 1719.35 1719.35 1719.35 1719.35 1719.35 1719.35 1719.35 1719.35 1719.35 1719.35 1719.35 1719.35 1719.35 1719.35 1719.35 1719.35 1719.35 1719.35 1719.35 1719.35 1719.35 1719.35 1719.35 1719.35 1719.35 1719.35 1719.35 1719.35 1719.35 1719.35 1719.35 1719.35 1719.35 1719.35 1719.35 1719.35 1719.35 1719.35 1719.35 1719.35 1719.35 1719.35 1719.35 1719.35 1719.35 1719.35 1719.35 1719.35 1719.35 1719.35 1719.35 1719.35 
1719.55 1719.55 1719.55 1719.55 1719.55 1719.55 1719.55 1719.55 1719.55 1719.55 1719.55 1719.55 1719.55 1719.55 1719.55 1719.55 1719.55 1719.55 1719.55 1719.55 1719.55 1719.55 1719.55 1719.55 1719.55 1719.55 1719.55 1719.55 1719.55 1719.55 1719.55 1719.55 1719.55 1719.55 1719.55 1719.55 1719.55 1719.55 1719.55 1719.55 1719.55 1719.55 1719.55 1719.55 1719.55 1719.55 1719.55 1719.55 1719.55 1719.55 1719.55 1719.55 1719.55 1719.55 1719.55 1719.55 1719.55 1719.55 1719.55 1719.55 1719.55 1719.55 1719.55 1719.55 1719.55 1719.55 1719.55 1719.55 1719.55 1719.55 1719.55 1719.55 1719.55 1719.55 1719.55 1719.55 1719.55 1719.55 1719.55 1719.55 1719.55 1719.55 1719.55 1719.55 1719.55 1719.55 1719.55 1719.55 1719.55 1719.55 1719.55 1719.55 1719.55 1719.55 1719.55 1719.55 1719.55 1719.55 1719.55 1719.55 1719.55 1719.55 1719.55 1719.55 1719.55 1719.55 1719.55 1719.55 1719.55 1719.55 1719.55 1719.55 1719.55 1719.55 1719.55 1719.55 1719.55 1719.55 1719.55 1719.55 1719.55 1719.55 1719.55 1719.55 1719.55 
1719.79 1719.79 1719.79 1719.79 1719.79 1719.79 1719.79 1719.79 1719.79 1719.79 1719.79 1719.79 1719.79 1719.79 1719.79 1719.79 1719.79 1719.79 1719.79 1719.79 1719.79 1719.79 1719.79 1719.79 1719.79 1719.79 1719.79 1719.79 1719.79 1719.79 1719.79 1719.79 1719.79 1719.79 1719.79 1719.79 1719.79 1719.79 1719.79 1719.79 1719.79 1719.79 1719.79 1719.79 1719.79 1719.79 1719.79 1719.79 1719.79 1719.79 1719.79 1719.79 1719.79 1719.79 1719.79 1719.79 1719.79 1719.79 1719.79 1719.79 1719.79 1719.79 1719.79 1719.79 1719.79 1719.79 1719.79 1719.79 1719.79 1719.79 1719.79 1719.79 1719.79 1719.79 1719.79 1719.79 1719.79 1719.79 1719.79 1719.79 1719.79 1719.79 1719.79 1719.79 1719.79 1719.79 1719.79 1719.79 1719.79 1719.79 1719.79 1719.79 1719.79 1719.79 1719.79 1719.79 1719.79 1719.79 1719.79 1719.79 1719.79 1719.79 1719.79 1719.79 1719.79 1719.79 1719.79 1719.79 1719.79 1719.79 1719.79 1719.79 1719.79 1719.79 1719.79 1719.79 1719.79 1719.79 1719.79 1719.79 1719.79 1719.79 1719.79 1719.79 1719.79 
1720.08 1720.08 1720.08 1720.08 1720.08 1720.08 1720.08 1720.08 1720.08 1720.08 1720.08 1720.08 1720.08 1720.08 1720.08 1720.08 1720.08 1720.08 1720.08 1720.08 1720.08 1720.08 1720.08 1720.08 1720.08 1720.08 1720.08 1720.08 1720.08 1720.08 1720.08 1720.08 1720.08 1720.08 1720.08 1720.08 1720.08 1720.08 1720.08 1720.08 1720.08 1720.08 1720.08 1720.08 1720.08 1720.08 1720.08 1720.08 1720.08 1720.08 1720.08 1720.08 1720.08 1720.08 1720.08 1720.08 1720.08 1720.08 1720.08 1720.08 1720.08 1720.08 1720.08 1720.08 1720.08 1720.08 1720.08 1720.08 1720.08 1720.08 1720.08 1720.08 1720.08 1720.08 1720.08 1720.08 1720.08 1720.08 1720.08 1720.08 1720.08 1720.08 1720.08 1720.08 1720.08 1720.08 1720.08 1720.08 1720.08 1720.08 1720.08 1720.08 1720.08 1720.08 1720.08 1720.08 1720.08 1720.08 1720.08 1720.08 1720.08 1720.08 1720.08 1720.08 1720.08 1720.08 1720.08 1720.08 1720.08 1720.08 1720.08 1720.08 1720.08 1720.08 1720.08 1720.08 1720.08 1720.08 1720.08 1720.08 1720.08 1720.08 1720.08 1720.08 1720.08 
1720.4 1720.4 1720.4 1720.4 1720.4 1720.4 1720.4 1720.4 1720.4 1720.4 1720.4 1720.4 1720.4 1720.4 1720.4 1720.4 1720.4 1720.4 1720.4 1720.4 1720.4 1720.4 1720.4 1720.4 1720.4 1720.4 1720.4 1720.4 1720.4 1720.4 1720.4 1720.4 1720.4 1720.4 1720.4 1720.4 1720.4 1720.4 1720.4 1720.4 1720.4 1720.4 1720.4 1720.4 1720.4 1720.4 1720.4 1720.4 1720.4 1720.4 1720.4 1720.4 1720.4 1720.4 1720.4 1720.4 1720.4 1720.4 1720.4 1720.4 1720.4 1720.4 1720.4 1720.4 1720.4 1720.4 1720.4 1720.4 1720.4 1720.4 1720.4 1720.4 1720.4 1720.4 1720.4 1720.4 1720.4 1720.4 1720.4 1720.4 1720.4 1720.4 1720.4 1720.4 1720.4 1720.4 1720.4 1720.4 1720.4 1720.4 1720.4 1720.4 1720.4 1720.4 1720.4 1720.4 1720.4 1720.4 1720.4 1720.4 1720.4 1720.4 1720.4 1720.4 1720.4 1720.4 1720.4 1720.4 1720.4 1720.4 1720.4 1720.4 1720.4 1720.4 1720.4 1720.4 1720.4 1720.4 1720.4 1720.4 1720.4 1720.4 1720.4 1720.4 1720.4 
1720.77 1720.77 1720.77 1720.77 1720.77 1720.77 1720.77 1720.77 1720.77 1720.77 1720.77 1720.77 1720.77 1720.77 1720.77 1720.77 1720.77 1720.77 1720.77 1720.77 1720.77 1720.77 1720.77 1720.77 1720.77 1720.77 1720.77 1720.77 1720.77 1720.77 1720.77 1720.77 1720.77 1720.77 1720.77 1720.77 1720.77 1720.77 1720.77 1720.77 1720.77 1720.77 1720.77 1720.77 1720.77 1720.77 1720.77 1720.77 1720.77 1720.77 1720.77 1720.77 1720.77 1720.77 1720.77 1720.77 1720.77 1720.77 1720.77 1720.77 1720.77 1720.77 1720.77 1720.77 1720.77 1720.77 1720.77 1720.77 1720.77 1720.77 1720.77 1720.77 1720.77 1720.77 1720.77 1720.77 1720.77 1720.77 1720.77 1720.77 1720.77 1720.77 1720.77 1720.77 1720.77 1720.77 1720.77 1720.77 1720.77 1720.77 1720.77 1720.77 1720.77 1720.77 1720.77 1720.77 1720.77 1720.77 1720.77 1720.77 1720.77 1720.77 1720.77 1720.77 1720.77 1720.77 1720.77 1720.77 1720.77 1720.77 1720.77 1720.77 1720.77 1720.77 1720.77 1720.77 1720.77 1720.77 1720.77 1720.77 1720.77 1720.77 1720.77 1720.77 1720.77 
1721.17 1721.17 1721.17 1721.17 1721.17 1721.17 1721.17 1721.17 1721.17 1721.17 1721.17 1721.17 1721.17 1721.17 1721.17 1721.17 1721.17 1721.17 1721.17 1721.17 1721.17 1721.17 1721.17 1721.17 1721.17 1721.17 1721.17 1721.17 1721.17 1721.17 1721.17 1721.17 1721.17 1721.17 1721.17 1721.17 1721.17 1721.17 1721.17 1721.17 1721.17 1721.17 1721.17 1721.17 1721.17 1721.17 1721.17 1721.17 1721.17 1721.17 1721.17 1721.17 1721.17 1721.17 1721.17 1721.17 1721.17 1721.17 1721.17 1721.17 1721.17 1721.17 1721.17 1721.17 1721.17 1721.17 1721.17 1721.17 1721.17 1721.17 1721.17 1721.17 1721.17 1721.17 1721.17 1721.17 1721.17 1721.17 1721.17 1721.17 1721.17 1721.17 1721.17 1721.17 1721.17 1721.17 1721.17 1721.17 1721.17 1721.17 1721.17 1721.17 1721.17 1721.17 1721.17 1721.17 1721.17 1721.17 1721.17 1721.17 1721.17 1721.17 1721.17 1721.17 1721.17 1721.17 1721.17 1721.17 1721.17 1721.17 1721.17 1721.17 1721.17 1721.17 1721.17 1721.17 1721.17 1721.17 1721.17 1721.17 1721.17 1721.17 1721.17 1721.17 1721.17 
1721.62 1721.62 1721.62 1721.62 1721.62 1721.62 1721.62 1721.62 1721.62 1721.62 1721.62 1721.62 1721.62 1721.62 1721.62 1721.62 1721.62 1721.62 1721.62 1721.62 1721.62 1721.62 1721.62 1721.62 1721.62 1721.62 1721.62 1721.62 1721.62 1721.62 1721.62 1721.62 1721.62 1721.62 1721.62 1721.62 1721.62 1721.62 1721.62 1721.62 1721.62 1721.62 1721.62 1721.62 1721.62 1721.62 1721.62 1721.62 1721.62 1721.62 1721.62 1721.62 1721.62 1721.62 1721.62 1721.62 1721.62 1721.62 1721.62 1721.62 1721.62 1721.62 1721.62 1721.62 1721.62 1721.62 1721.62 1721.62 1721.62 1721.62 1721.62 1721.62 1721.62 1721.62 1721.62 1721.62 1721.62 1721.62 1721.62 1721.62 1721.62 1721.62 1721.62 1721.62 1721.62 1721.62 1721.62 1721.62 1721.62 1721.62 1721.62 1721.62 1721.62 1721.62 1721.62 1721.62 1721.62 1721.62 1721.62 1721.62 1721.62 1721.62 1721.62 1721.62 1721.62 1721.62 1721.62 1721.62 1721.62 1721.62 1721.62 1721.62 1721.62 1721.62 1721.62 1721.62 1721.62 1721.62 1721.62 1721.62 1721.62 1721.62 1721.62 1721.62 1721.62 
1722.1 1722.1 1722.1 1722.1 1722.1 1722.1 1722.1 1722.1 1722.1 1722.1 1722.1 1722.1 1722.1 1722.1 1722.1 1722.1 1722.1 1722.1 1722.1 1722.1 1722.1 1722.1 1722.1 1722.1 1722.1 1722.1 1722.1 1722.1 1722.1 1722.1 1722.1 1722.1 1722.1 1722.1 1722.1 1722.1 1722.1 1722.1 1722.1 1722.1 1722.1 1722.1 1722.1 1722.1 1722.1 1722.1 1722.1 1722.1 1722.1 1722.1 1722.1 1722.1 1722.1 1722.1 1722.1 1722.1 1722.1 1722.1 1722.1 1722.1 1722.1 1722.1 1722.1 1722.1 1722.1 1722.1 1722.1 1722.1 1722.1 1722.1 1722.1 1722.1 1722.1 1722.1 1722.1 1722.1 1722.1 1722.1 1722.1 1722.1 1722.1 1722.1 1722.1 1722.1 1722.1 1722.1 1722.1 1722.1 1722.1 1722.1 1722.1 1722.1 1722.1 1722.1 1722.1 1722.1 1722.1 1722.1 1722.1 1722.1 1722.1 1722.1 1722.1 1722.1 1722.1 1722.1 1722.1 1722.1 1722.1 1722.1 1722.1 1722.1 1722.1 1722.1 1722.1 1722.1 1722.1 1722.1 1722.1 1722.1 1722.1 1722.1 1722.1 1722.1 1722.1 
1722.63 1722.63 1722.63 1722.63 1722.63 1722.63 1722.63 1722.63 1722.63 1722.63 1722.63 1722.63 1722.63 1722.63 1722.63 1722.63 1722.63 1722.63 1722.63 1722.63 1722.63 1722.63 1722.63 1722.63 1722.63 1722.63 1722.63 1722.63 1722.63 1722.63 1722.63 1722.63 1722.63 1722.63 1722.63 1722.63 1722.63 1722.63 1722.63 1722.63 1722.63 1722.63 1722.63 1722.63 1722.63 1722.63 1722.63 1722.63 1722.63 1722.63 1722.63 1722.63 1722.63 1722.63 1722.63 1722.63 1722.63 1722.63 1722.63 1722.63 1722.63 1722.63 1722.63 1722.63 1722.63 1722.63 1722.63 1722.63 1722.63 1722.63 1722.63 1722.63 1722.63 1722.63 1722.63 1722.63 1722.63 1722.63 1722.63 1722.63 1722.63 1722.63 1722.63 1722.63 1722.63 1722.63 1722.63 1722.63 1722.63 1722.63 1722.63 1722.63 1722.63 1722.63 1722.63 1722.63 1722.63 1722.63 1722.63 1722.63 1722.63 1722.63 1722.63 1722.63 1722.63 1722.63 1722.63 1722.63 1722.63 1722.63 1722.63 1722.63 1722.63 1722.63 1722.63 1722.63 1722.63 1722.63 1722.63 1722.63 1722.63 1722.63 1722.63 1722.63 1722.63 
1723.2 1723.2 1723.2 1723.2 1723.2 1723.2 1723.2 1723.2 1723.2 1723.2 1723.2 1723.2 1723.2 1723.2 1723.2 1723.2 1723.2 1723.2 1723.2 1723.2 1723.2 1723.2 1723.2 1723.2 1723.2 1723.2 1723.2 1723.2 1723.2 1723.2 1723.2 1723.2 1723.2 1723.2 1723.2 1723.2 1723.2 1723.2 1723.2 1723.2 1723.2 1723.2 1723.2 1723.2 1723.2 1723.2 1723.2 1723.2 1723.2 1723.2 1723.2 1723.2 1723.2 1723.2 1723.2 1723.2 1723.2 1723.2 1723.2 1723.2 1723.2 1723.2 1723.2 1723.2 1723.2 1723.2 1723.2 1723.2 1723.2 1723.2 1723.2 1723.2 1723.2 1723.2 1723.2 1723.2 1723.2 1723.2 1723.2 1723.2 1723.2 1723.2 1723.2 1723.2 1723.2 1723.2 1723.2 1723.2 1723.2 1723.2 1723.2 1723.2 1723.2 1723.2 1723.2 1723.2 1723.2 1723.2 1723.2 1723.2 1723.2 1723.2 1723.2 1723.2 1723.2 1723.2 1723.2 1723.2 1723.2 1723.2 1723.2 1723.2 1723.2 1723.2 1723.2 1723.2 1723.2 1723.2 1723.2 1723.2 1723.2 1723.2 1723.2 1723.2 1723.2 
1723.8 1723.8 1723.8 1723.8 1723.8 1723.8 1723.8 1723.8 1723.8 1723.8 1723.8 1723.8 1723.8 1723.8 1723.8 1723.8 1723.8 1723.8 1723.8 1723.8 1723.8 1723.8 1723.8 1723.8 1723.8 1723.8 1723.8 1723.8 1723.8 1723.8 1723.8 1723.8 1723.8 1723.8 1723.8 1723.8 1723.8 1723.8 1723.8 1723.8 1723.8 1723.8 1723.8 1723.8 1723.8 1723.8 1723.8 1723.8 1723.8 1723.8 1723.8 1723.8 1723.8 1723.8 1723.8 1723.8 1723.8 1723.8 1723.8 1723.8 1723.8 1723.8 1723.8 1723.8 1723.8 1723.8 1723.8 1723.8 1723.8 1723.8 1723.8 1723.8 1723.8 1723.8 1723.8 1723.8 1723.8 1723.8 1723.8 1723.8 1723.8 1723.8 1723.8 1723.8 1723.8 1723.8 1723.8 1723.8 1723.8 1723.8 1723.8 1723.8 1723.8 1723.8 1723.8 1723.8 1723.8 1723.8 1723.8 1723.8 1723.8 1723.8 1723.8 1723.8 1723.8 1723.8 1723.8 1723.8 1723.8 1723.8 1723.8 1723.8 1723.8 1723.8 1723.8 1723.8 1723.8 1723.8 1723.8 1723.8 1723.8 1723.8 1723.8 1723.8 1723.8 
1724.45 1724.45 1724.45 1724.45 1724.45 1724.45 1724.45 1724.45 1724.45 1724.45 1724.45 1724.45 1724.45 1724.45 1724.45 1724.45 1724.45 1724.45 1724.45 1724.45 1724.45 1724.45 1724.45 1724.45 1724.45 1724.45 1724.45 1724.45 1724.45 1724.45 1724.45 1724.45 1724.45 1724.45 1724.45 1724.45 1724.45 1724.45 1724.45 1724.45 1724.45 1724.45 1724.45 1724.45 1724.45 1724.45 1724.45 1724.45 1724.45 1724.45 1724.45 1724.45 1724.45 1724.45 1724.45 1724.45 1724.45 1724.45 1724.45 1724.45 1724.45 1724.45 1724.45 1724.45 1724.45 1724.45 1724.45 1724.45 1724.45 1724.45 1724.45 1724.45 1724.45 1724.45 1724.45 1724.45 1724.45 1724.45 1724.45 1724.45 1724.45 1724.45 1724.45 1724.45 1724.45 1724.45 1724.45 1724.45 1724.45 1724.45 1724.45 1724.45 1724.45 1724.45 1724.45 1724.45 1724.45 1724.45 1724.45 1724.45 1724.45 1724.45 1724.45 1724.45 1724.45 1724.45 1724.45 1724.45 1724.45 1724.45 1724.45 1724.45 1724.45 1724.45 1724.45 1724.45 1724.45 1724.45 1724.45 1724.45 1724.45 1724.45 1724.45 1724.45 1724.45 
1725.14 1725.14 1725.14 1725.14 1725.14 1725.14 1725.14 1725.14 1725.14 1725.14 1725.14 1725.14 1725.14 1725.14 1725.14 1725.14 1725.14 1725.14 1725.14 1725.14 1725.14 1725.14 1725.14 1725.14 1725.14 1725.14 1725.14 1725.14 1725.14 1725.14 1725.14 1725.14 1725.14 1725.14 1725.14 1725.14 1725.14 1725.14 1725.14 1725.14 1725.14 1725.14 1725.14 1725.14 1725.14 1725.14 1725.14 1725.14 1725.14 1725.14 1725.14 1725.14 1725.14 1725.14 1725.14 1725.14 1725.14 1725.14 1725.14 1725.14 1725.14 1725.14 1725.14 1725.14 1725.14 1725.14 1725.14 1725.14 1725.14 1725.14 1725.14 1725.14 1725.14 1725.14 1725.14 1725.14 1725.14 1725.14 1725.14 1725.14 1725.14 1725.14 1725.14 1725.14 1725.14 1725.14 1725.14 1725.14 1725.14 1725.14 1725.14 1725.14 1725.14 1725.14 1725.14 1725.14 1725.14 1725.14 1725.14 1725.14 1725.14 1725.14 1725.14 1725.14 1725.14 1725.14 1725.14 1725.14 1725.14 1725.14 1725.14 1725.14 1725.14 1725.14 1725.14 1725.14 1725.14 1725.14 1725.14 1725.14 1725.14 1725.14 1725.14 1725.14 1725.14 
1725.87 1725.87 1725.87 1725.87 1725.87 1725.87 1725.87 1725.87 1725.87 1725.87 1725.87 1725.87 1725.87 1725.87 1725.87 1725.87 1725.87 1725.87 1725.87 1725.87 1725.87 1725.87 1725.87 1725.87 1725.87 1725.87 1725.87 1725.87 1725.87 1725.87 1725.87 1725.87 1725.87 1725.87 1725.87 1725.87 1725.87 1725.87 1725.87 1725.87 1725.87 1725.87 1725.87 1725.87 1725.87 1725.87 1725.87 1725.87 1725.87 1725.87 1725.87 1725.87 1725.87 1725.87 1725.87 1725.87 1725.87 1725.87 1725.87 1725.87 1725.87 1725.87 1725.87 1725.87 1725.87 1725.87 1725.87 1725.87 1725.87 1725.87 1725.87 1725.87 1725.87 1725.87 1725.87 1725.87 1725.87 1725.87 1725.87 1725.87 1725.87 1725.87 1725.87 1725.87 1725.87 1725.87 1725.87 1725.87 1725.87 1725.87 1725.87 1725.87 1725.87 1725.87 1725.87 1725.87 1725.87 1725.87 1725.87 1725.87 1725.87 1725.87 1725.87 1725.87 1725.87 1725.87 1725.87 1725.87 1725.87 1725.87 1725.87 1725.87 1725.87 1725.87 1725.87 1725.87 1725.87 1725.87 1725.87 1725.87 1725.87 1725.87 1725.87 1725.87 1725.87 
1726.63 1726.63 1726.63 1726.63 1726.63 1726.63 1726.63 1726.63 1726.63 1726.63 1726.63 1726.63 1726.63 1726.63 1726.63 1726.63 1726.63 1726.63 1726.63 1726.63 1726.63 1726.63 1726.63 1726.63 1726.63 1726.63 1726.63 1726.63 1726.63 1726.63 1726.63 1726.63 1726.63 1726.63 1726.63 1726.63 1726.63 1726.63 1726.63 1726.63 1726.63 1726.63 1726.63 1726.63 1726.63 1726.63 1726.63 1726.63 1726.63 1726.63 1726.63 1726.63 1726.63 1726.63 1726.63 1726.63 1726.63 1726.63 1726.63 1726.63 1726.63 1726.63 1726.63 1726.63 1726.63 1726.63 1726.63 1726.63 1726.63 1726.63 1726.63 1726.63 1726.63 1726.63 1726.63 1726.63 1726.63 1726.63 1726.63 1726.63 1726.63 1726.63 1726.63 1726.63 1726.63 1726.63 1726.63 1726.63 1726.63 1726.63 1726.63 1726.63 1726.63 1726.63 1726.63 1726.63 1726.63 1726.63 1726.63 1726.63 1726.63 1726.63 1726.63 1726.63 1726.63 1726.63 1726.63 1726.63 1726.63 1726.63 1726.63 1726.63 1726.63 1726.63 1726.63 1726.63 1726.63 1726.63 1726.63 1726.63 1726.63 1726.63 1726.63 1726.63 1726.63 
1727.44 1727.44 1727.44 1727.44 1727.44 1727.44 1727.44 1727.44 1727.44 1727.44 1727.44 1727.44 1727.44 1727.44 1727.44 1727.44 1727.44 1727.44 1727.44 1727.44 1727.44 1727.44 1727.44 1727.44 1727.44 1727.44 1727.44 1727.44 1727.44 1727.44 1727.44 1727.44 1727.44 1727.44 1727.44 1727.44 1727.44 1727.44 1727.44 1727.44 1727.44 1727.44 1727.44 1727.44 1727.44 1727.44 1727.44 1727.44 1727.44 1727.44 1727.44 1727.44 1727.44 1727.44 1727.44 1727.44 1727.44 1727.44 1727.44 1727.44 1727.44 1727.44 1727.44 1727.44 1727.44 1727.44 1727.44 1727.44 1727.44 1727.44 1727.44 1727.44 1727.44 1727.44 1727.44 1727.44 1727.44 1727.44 1727.44 1727.44 1727.44 1727.44 1727.44 1727.44 1727.44 1727.44 1727.44 1727.44 1727.44 1727.44 1727.44 1727.44 1727.44 1727.44 1727.44 1727.44 1727.44 1727.44 1727.44 1727.44 1727.44 1727.44 1727.44 1727.44 1727.44 1727.44 1727.44 1727.44 1727.44 1727.44 1727.44 1727.44 1727.44 1727.44 1727.44 1727.44 1727.44 1727.44 1727.44 1727.44 1727.44 1727.44 1727.44 1727.44 1727.44 
1728.29 1728.29 1728.29 1728.29 1728.29 1728.29 1728.29 1728.29 1728.29 1728.29 1728.29 1728.29 1728.29 1728.29 1728.29 1728.29 1728.29 1728.29 1728.29 1728.29 1728.29 1728.29 1728.29 1728.29 1728.29 1728.29 1728.29 1728.29 1728.29 1728.29 1728.29 1728.29 1728.29 1728.29 1728.29 1728.29 1728.29 1728.29 1728.29 1728.29 1728.29 1728.29 1728.29 1728.29 1728.29 1728.29 1728.29 1728.29 1728.29 1728.29 1728.29 1728.29 1728.29 1728.29 1728.29 1728.29 1728.29 1728.29 1728.29 1728.29 1728.29 1728.29 1728.29 1728.29 1728.29 1728.29 1728.29 1728.29 1728.29 1728.29 1728.29 1728.29 1728.29 1728.29 1728.29 1728.29 1728.29 1728.29 1728.29 1728.29 1728.29 1728.29 1728.29 1728.29 1728.29 1728.29 1728.29 1728.29 1728.29 1728.29 1728.29 1728.29 1728.29 1728.29 1728.29 1728.29 1728.29 1728.29 1728.29 1728.29 1728.29 1728.29 1728.29 1728.29 1728.29 1728.29 1728.29 1728.29 1728.29 1728.29 1728.29 1728.29 1728.29 1728.29 1728.29 1728.29 1728.29 1728.29 1728.29 1728.29 1728.29 1728.29 1728.29 1728.29 1728.29 
1729.18 1729.18 1729.18 1729.18 1729.18 1729.18 1729.18 1729.18 1729.18 1729.18 1729.18 1729.18 1729.18 1729.18 1729.18 1729.18 1729.18 1729.18 1729.18 1729.18 1729.18 1729.18 1729.18 1729.18 1729.18 1729.18 1729.18 1729.18 1729.18 1729.18 1729.18 1729.18 1729.18 1729.18 1729.18 1729.18 1729.18 1729.18 1729.18 1729.18 1729.18 1729.18 1729.18 1729.18 1729.18 1729.18 1729.18 1729.18 1729.18 1729.18 1729.18 1729.18 1729.18 1729.18 1729.18 1729.18 1729.18 1729.18 1729.18 1729.18 1729.18 1729.18 1729.18 1729.18 1729.18 1729.18 1729.18 1729.18 1729.18 1729.18 1729.18 1729.18 1729.18 1729.18 1729.18 1729.18 1729.18 1729.18 1729.18 1729.18 1729.18 1729.18 1729.18 1729.18 1729.18 1729.18 1729.18 1729.18 1729.18 1729.18 1729.18 1729.18 1729.18 1729.18 1729.18 1729.18 1729.18 1729.18 1729.18 1729.18 1729.18 1729.18 1729.18 1729.18 1729.18 1729.18 1729.18 1729.18 1729.18 1729.18 1729.18 1729.18 1729.18 1729.18 1729.18 1729.18 1729.18 1729.18 1729.18 1729.18 1729.18 1729.18 1729.18 1729.18 1729.18 
1730.11 1730.11 1730.11 1730.11 1730.11 1730.11 1730.11 1730.11 1730.11 1730.11 1730.11 1730.11 1730.11 1730.11 1730.11 1730.11 1730.11 1730.11 1730.11 1730.11 1730.11 1730.11 1730.11 1730.11 1730.11 1730.11 1730.11 1730.11 1730.11 1730.11 1730.11 1730.11 1730.11 1730.11 1730.11 1730.11 1730.11 1730.11 1730.11 1730.11 1730.11 1730.11 1730.11 1730.11 1730.11 1730.11 1730.11 1730.11 1730.11 1730.11 1730.11 1730.11 1730.11 1730.11 1730.11 1730.11 1730.11 1730.11 1730.11 1730.11 1730.11 1730.11 1730.11 1730.11 1730.11 1730.11 1730.11 1730.11 1730.11 1730.11 1730.11 1730.11 1730.11 1730.11 1730.11 1730.11 1730.11 1730.11 1730.11 1730.11 1730.11 1730.11 1730.11 1730.11 1730.11 1730.11 1730.11 1730.11 1730.11 1730.11 1730.11 1730.11 1730.11 1730.11 1730.11 1730.11 1730.11 1730.11 1730.11 1730.11 1730.11 1730.11 1730.11 1730.11 1730.11 1730.11 1730.11 1730.11 1730.11 1730.11 1730.11 1730.11 1730.11 1730.11 1730.11 1730.11 1730.11 1730.11 1730.11 1730.11 1730.11 1730.11 1730.11 1730.11 1730.11 
1731.07 1731.07 1731.07 1731.07 1731.07 1731.07 1731.07 1731.07 1731.07 1731.07 1731.07 1731.07 1731.07 1731.07 1731.07 1731.07 1731.07 1731.07 1731.07 1731.07 1731.07 1731.07 1731.07 1731.07 1731.07 1731.07 1731.07 1731.07 1731.07 1731.07 1731.07 1731.07 1731.07 1731.07 1731.07 1731.07 1731.07 1731.07 1731.07 1731.07 1731.07 1731.07 1731.07 1731.07 1731.07 1731.07 1731.07 1731.07 1731.07 1731.07 1731.07 1731.07 1731.07 1731.07 1731.07 1731.07 1731.07 1731.07 1731.07 1731.07 1731.07 1731.07 1731.07 1731.07 1731.07 1731.07 1731.07 1731.07 1731.07 1731.07 1731.07 1731.07 1731.07 1731.07 1731.07 1731.07 1731.07 1731.07 1731.07 1731.07 1731.07 1731.07 1731.07 1731.07 1731.07 1731.07 1731.07 1731.07 1731.07 1731.07 1731.07 1731.07 1731.07 1731.07 1731.07 1731.07 1731.07 1731.07 1731.07 1731.07 1731.07 1731.07 1731.07 1731.07 1731.07 1731.07 1731.07 1731.07 1731.07 1731.07 1731.07 1731.07 1731.07 1731.07 1731.07 1731.07 1731.07 1731.07 1731.07 1731.07 1731.07 1731.07 1731.07 1731.07 1731.07 
1732.08 1732.08 1732.08 1732.08 1732.08 1732.08 1732.08 1732.08 1732.08 1732.08 1732.08 1732.08 1732.08 1732.08 1732.08 1732.08 1732.08 1732.08 1732.08 1732.08 1732.08 1732.08 1732.08 1732.08 1732.08 1732.08 1732.08 1732.08 1732.08 1732.08 1732.08 1732.08 1732.08 1732.08 1732.08 1732.08 1732.08 1732.08 1732.08 1732.08 1732.08 1732.08 1732.08 1732.08 1732.08 1732.08 1732.08 1732.08 1732.08 1732.08 1732.08 1732.08 1732.08 1732.08 1732.08 1732.08 1732.08 1732.08 1732.08 1732.08 1732.08 1732.08 1732.08 1732.08 1732.08 1732.08 1732.08 1732.08 1732.08 1732.08 1732.08 1732.08 1732.08 1732.08 1732.08 1732.08 1732.08 1732.08 1732.08 1732.08 1732.08 1732.08 1732.08 1732.08 1732.08 1732.08 1732.08 1732.08 1732.08 1732.08 1732.08 1732.08 1732.08 1732.08 1732.08 1732.08 1732.08 1732.08 1732.08 1732.08 1732.08 1732.08 1732.08 1732.08 1732.08 1732.08 1732.08 1732.08 1732.08 1732.08 1732.08 1732.08 1732.08 1732.08 1732.08 1732.08 1732.08 1732.08 1732.08 1732.08 1732.08 1732.08 1732.08 1732.08 1732.08 
1733.13 1733.13 1733.13 1733.13 1733.13 1733.13 1733.13 1733.13 1733.13 1733.13 1733.13 1733.13 1733.13 1733.13 1733.13 1733.13 1733.13 1733.13 1733.13 1733.13 1733.13 1733.13 1733.13 1733.13 1733.13 1733.13 1733.13 1733.13 1733.13 1733.13 1733.13 1733.13 1733.13 1733.13 1733.13 1733.13 1733.13 1733.13 1733.13 1733.13 1733.13 1733.13 1733.13 1733.13 1733.13 1733.13 1733.13 1733.13 1733.13 1733.13 1733.13 1733.13 1733.13 1733.13 1733.13 1733.13 1733.13 1733.13 1733.13 1733.13 1733.13 1733.13 1733.13 1733.13 1733.13 1733.13 1733.13 1733.13 1733.13 1733.13 1733.13 1733.13 1733.13 1733.13 1733.13 1733.13 1733.13 1733.13 1733.13 1733.13 1733.13 1733.13 1733.13 1733.13 1733.13 1733.13 1733.13 1733.13 1733.13 1733.13 1733.13 1733.13 1733.13 1733.13 1733.13 1733.13 1733.13 1733.13 1733.13 1733.13 1733.13 1733.13 1733.13 1733.13 1733.13 1733.13 1733.13 1733.13 1733.13 1733.13 1733.13 1733.13 1733.13 1733.13 1733.13 1733.13 1733.13 1733.13 1733.13 1733.13 1733.13 1733.13 1733.13 1733.13 1733.13 
1734.21 1734.21 1734.21 1734.21 1734.21 1734.21 1734.21 1734.21 1734.21 1734.21 1734.21 1734.21 1734.21 1734.21 1734.21 1734.21 1734.21 1734.21 1734.21 1734.21 1734.21 1734.21 1734.21 1734.21 1734.21 1734.21 1734.21 1734.21 1734.21 1734.21 1734.21 1734.21 1734.21 1734.21 1734.21 1734.21 1734.21 1734.21 1734.21 1734.21 1734.21 1734.21 1734.21 1734.21 1734.21 1734.21 1734.21 1734.21 1734.21 1734.21 1734.21 1734.21 1734.21 1734.21 1734.21 1734.21 1734.21 1734.21 1734.21 1734.21 1734.21 1734.21 1734.21 1734.21 1734.21 1734.21 1734.21 1734.21 1734.21 1734.21 1734.21 1734.21 1734.21 1734.21 1734.21 1734.21 1734.21 1734.21 1734.21 1734.21 1734.21 1734.21 1734.21 1734.21 1734.21 1734.21 1734.21 1734.21 1734.21 1734.21 1734.21 1734.21 1734.21 1734.21 1734.21 1734.21 1734.21 1734.21 1734.21 1734.21 1734.21 1734.21 1734.21 1734.21 1734.21 1734.21 1734.21 1734.21 1734.21 1734.21 1734.21 1734.21 1734.21 1734.21 1734.21 1734.21 1734.21 1734.21 1734.21 1734.21 1734.21 1734.21 1734.21 1734.21 1734.21 
1735.34 1735.34 1735.34 1735.34 1735.34 1735.34 1735.34 1735.34 1735.34 1735.34 1735.34 1735.34 1735.34 1735.34 1735.34 1735.34 1735.34 1735.34 1735.34 1735.34 1735.34 1735.34 1735.34 1735.34 1735.34 1735.34 1735.34 1735.34 1735.34 1735.34 1735.34 1735.34 1735.34 1735.34 1735.34 1735.34 1735.34 1735.34 1735.34 1735.34 1735.34 1735.34 1735.34 1735.34 1735.34 1735.34 1735.34 1735.34 1735.34 1735.34 1735.34 1735.34 1735.34 1735.34 1735.34 1735.34 1735.34 1735.34 1735.34 1735.34 1735.34 1735.34 1735.34 1735.34 1735.34 1735.34 1735.34 1735.34 1735.34 1735.34 1735.34 1735.34 1735.34 1735.34 1735.34 1735.34 1735.34 1735.34 1735.34 1735.34 1735.34 1735.34 1735.34 1735.34 1735.34 1735.34 1735.34 1735.34 1735.34 1735.34 1735.34 1735.34 1735.34 1735.34 1735.34 1735.34 1735.34 1735.34 1735.34 1735.34 1735.34 1735.34 1735.34 1735.34 1735.34 1735.34 1735.34 1735.34 1735.34 1735.34 1735.34 1735.34 1735.34 1735.34 1735.34 1735.34 1735.34 1735.34 1735.34 1735.34 1735.34 1735.34 1735.34 1735.34 1735.34 
1736.5 1736.5 1736.5 1736.5 1736.5 1736.5 1736.5 1736.5 1736.5 1736.5 1736.5 1736.5 1736.5 1736.5 1736.5 1736.5 1736.5 1736.5 1736.5 1736.5 1736.5 1736.5 1736.5 1736.5 1736.5 1736.5 1736.5 1736.5 1736.5 1736.5 1736.5 1736.5 1736.5 1736.5 1736.5 1736.5 1736.5 1736.5 1736.5 1736.5 1736.5 1736.5 1736.5 1736.5 1736.5 1736.5 1736.5 1736.5 1736.5 1736.5 1736.5 1736.5 1736.5 1736.5 1736.5 1736.5 1736.5 1736.5 1736.5 1736.5 1736.5 1736.5 1736.5 1736.5 1736.5 1736.5 1736.5 1736.5 1736.5 1736.5 1736.5 1736.5 1736.5 1736.5 1736.5 1736.5 1736.5 1736.5 1736.5 1736.5 1736.5 1736.5 1736.5 1736.5 1736.5 1736.5 1736.5 1736.5 1736.5 1736.5 1736.5 1736.5 1736.5 1736.5 1736.5 1736.5 1736.5 1736.5 1736.5 1736.5 1736.5 1736.5 1736.5 1736.5 1736.5 1736.5 1736.5 1736.5 1736.5 1736.5 1736.5 1736.5 1736.5 1736.5 1736.5 1736.5 1736.5 1736.5 1736.5 1736.5 1736.5 1736.5 1736.5 1736.5 1736.5 